 Entering Gaussian System, Link 0=g16
 Input=JOBS/53_A.gjf
 Output=JOBS/53_A.log
 Initial command:
 /data/app/gaussian/C01-avx2//g16/l1.exe "/tmp/Gau-681076.inp" -scrdir="/tmp/"
 Entering Link 1 = /data/app/gaussian/C01-avx2//g16/l1.exe PID=    681077.
  
 Copyright (c) 1988-2019, Gaussian, Inc.  All Rights Reserved.
  
 This is part of the Gaussian(R) 16 program.  It is based on
 the Gaussian(R) 09 system (copyright 2009, Gaussian, Inc.),
 the Gaussian(R) 03 system (copyright 2003, Gaussian, Inc.),
 the Gaussian(R) 98 system (copyright 1998, Gaussian, Inc.),
 the Gaussian(R) 94 system (copyright 1995, Gaussian, Inc.),
 the Gaussian 92(TM) system (copyright 1992, Gaussian, Inc.),
 the Gaussian 90(TM) system (copyright 1990, Gaussian, Inc.),
 the Gaussian 88(TM) system (copyright 1988, Gaussian, Inc.),
 the Gaussian 86(TM) system (copyright 1986, Carnegie Mellon
 University), and the Gaussian 82(TM) system (copyright 1983,
 Carnegie Mellon University). Gaussian is a federally registered
 trademark of Gaussian, Inc.
  
 This software contains proprietary and confidential information,
 including trade secrets, belonging to Gaussian, Inc.
  
 This software is provided under written license and may be
 used, copied, transmitted, or stored only in accord with that
 written license.
  
 The following legend is applicable only to US Government
 contracts under FAR:
  
                    RESTRICTED RIGHTS LEGEND
  
 Use, reproduction and disclosure by the US Government is
 subject to restrictions as set forth in subparagraphs (a)
 and (c) of the Commercial Computer Software - Restricted
 Rights clause in FAR 52.227-19.
  
 Gaussian, Inc.
 340 Quinnipiac St., Bldg. 40, Wallingford CT 06492
  
  
 ---------------------------------------------------------------
 Warning -- This program may not be used in any manner that
 competes with the business of Gaussian, Inc. or will provide
 assistance to any competitor of Gaussian, Inc.  The licensee
 of this program is prohibited from giving any competitor of
 Gaussian, Inc. access to this program.  By using this program,
 the user acknowledges that Gaussian, Inc. is engaged in the
 business of creating and licensing software in the field of
 computational chemistry and represents and warrants to the
 licensee that it is not a competitor of Gaussian, Inc. and that
 it will not use this program in any manner prohibited above.
 ---------------------------------------------------------------
  

 Cite this work as:
 Gaussian 16, Revision C.01,
 M. J. Frisch, G. W. Trucks, H. B. Schlegel, G. E. Scuseria, 
 M. A. Robb, J. R. Cheeseman, G. Scalmani, V. Barone, 
 G. A. Petersson, H. Nakatsuji, X. Li, M. Caricato, A. V. Marenich, 
 J. Bloino, B. G. Janesko, R. Gomperts, B. Mennucci, H. P. Hratchian, 
 J. V. Ortiz, A. F. Izmaylov, J. L. Sonnenberg, D. Williams-Young, 
 F. Ding, F. Lipparini, F. Egidi, J. Goings, B. Peng, A. Petrone, 
 T. Henderson, D. Ranasinghe, V. G. Zakrzewski, J. Gao, N. Rega, 
 G. Zheng, W. Liang, M. Hada, M. Ehara, K. Toyota, R. Fukuda, 
 J. Hasegawa, M. Ishida, T. Nakajima, Y. Honda, O. Kitao, H. Nakai, 
 T. Vreven, K. Throssell, J. A. Montgomery, Jr., J. E. Peralta, 
 F. Ogliaro, M. J. Bearpark, J. J. Heyd, E. N. Brothers, K. N. Kudin, 
 V. N. Staroverov, T. A. Keith, R. Kobayashi, J. Normand, 
 K. Raghavachari, A. P. Rendell, J. C. Burant, S. S. Iyengar, 
 J. Tomasi, M. Cossi, J. M. Millam, M. Klene, C. Adamo, R. Cammi, 
 J. W. Ochterski, R. L. Martin, K. Morokuma, O. Farkas, 
 J. B. Foresman, and D. J. Fox, Gaussian, Inc., Wallingford CT, 2019.
 
 ******************************************
 Gaussian 16:  ES64L-G16RevC.01  3-Jul-2019
                 2-Jun-2024 
 ******************************************
 %chk=a.chk
 %nprocshared=56
 Will use up to   56 processors via shared memory.
 %mem=96gb
 ----------------------------------------------------------------------
 # def2svp wb97xd scrf=(smd,solvent=acetonitrile) g09default scf=(xqc,m
 axcycle=64) force guess=read nosymm
 ----------------------------------------------------------------------
 1/10=7,30=1,38=1,158=3,167=1/1,3;
 2/12=2,15=1,17=6,18=5,40=1/2;
 3/5=43,7=101,11=2,25=1,27=10,30=1,70=32201,71=1,72=2,74=-58,75=-4,116=-2,158=3/1,2,3;
 4/5=1,60=-1/1;
 5/5=2,7=64,8=3,13=1,38=6,53=2,87=10/2,8;
 6/7=2,8=2,9=2,10=2,28=1,87=10/1;
 7/29=1,30=1,87=10/1,2,3,16;
 1/10=7,30=1,158=3,167=1/3;
 99//99;
 Using 2006 physical constants.
 ----------
 Title Card
 ----------
 Symbolic Z-matrix:
 Charge = -1 Multiplicity = 1
 17                   -9.64732   8.27351   10.54466 
 6                    -8.34533   4.25095   12.2139 
 6                    -9.14052   3.93189   11.09709 
 6                    -10.05314   2.86706   11.21536 
 6                    -10.20593   2.18187   12.41598 
 6                    -9.43651   2.53534   13.52545 
 6                    -8.49412   3.56023   13.41315 
 1                    -7.59897   5.04563   12.14443 
 1                    -10.65651   2.58714   10.34728 
 1                    -10.92695   1.36393   12.48647 
 1                    -9.55909   2.00305   14.47126 
 1                    -7.87068   3.82369   14.27131 
 6                    -9.08003   4.67344   9.8364 
 6                    -8.41492   5.82717   9.61772 
 1                    -9.66328   4.24228   9.01497 
 1                    -8.42969   6.29471   8.63192 
 1                    -7.79117   6.30387   10.37329 
 8                    -0.97517  -1.80265   7.46547 
 8                    -8.38882  -1.33245   7.46192 
 8                    -7.01915   1.3468    10.47356 
 8                    -2.33452  -4.39806   10.55499 
 74                   -3.39981   0.6912    6.47828 
 74                   -5.98878  -3.82088   6.55818 
 74                   -3.60906   0.86896   11.41595 
 74                   -5.76148  -3.86609   11.48264 
 74                   -2.42973  -2.59221   6.40204 
 74                   -6.93574  -0.5348    6.36959 
 74                   -6.81443  -0.25098   11.56185 
 74                   -2.54351  -2.73994   11.60351 
 8                    -3.16522   1.87326   5.29654 
 8                    -6.12232  -5.07153   5.41627 
 8                    -2.68033   1.70886   12.56541 
 8                    -6.68104  -4.66657   12.66488 
 8                    -2.65846  -0.91716   5.58886 
 8                    -6.69983  -2.26911   5.62032 
 8                    -5.30459   0.5496    12.35911 
 8                    -4.04979  -3.53463   12.40798 
 8                     0.31509  -0.02042   9.27827 
 8                    -9.69059  -3.04195   9.3254 
 8                    -6.34481   3.42924   8.66459 
 8                    -3.01097  -6.49496   8.74379 
 8                    -1.77753   0.74436   7.47303 
 8                    -7.59689  -3.88324   7.54109 
 8                    -4.48886   2.19495   10.4258 
 8                    -4.87278  -5.23414   10.53034 
 8                    -1.60029  -3.53377   5.2543 
 8                    -7.81236   0.2768    5.1766 
 8                    -8.03593  -0.16541   12.7391 
 8                    -1.3081   -2.86087   12.76356 
 74                   -1.2437   -0.53722   8.83831 
 74                   -8.13104  -2.53945   8.87385 
 74                   -5.86974   1.85716   9.04333 
 74                   -3.4948   -4.92055   9.16379 
 8                    -4.21143  -3.11439   6.07342 
 8                    -5.14797  -0.06317   6.01814 
 8                    -6.16697  -1.99995   11.90923 
 8                    -3.1715   -0.99183   11.91853 
 8                    -4.34962   1.57911   7.83375 
 8                    -5.00829  -4.68403   7.92456 
 8                    -2.31867   0.56292   10.07659 
 8                    -7.04401  -3.61567   10.13011 
 8                    -2.57008  -3.91034   7.86868 
 8                    -6.80605   0.79357   7.80264 
 8                    -7.82129  -1.17798   10.14038 
 8                    -1.55383  -1.87455   10.13979 
 8                    -3.35307  -1.1609    8.01175 
 8                    -6.01468  -1.96156   8.03382 
 8                    -5.11225  -0.21086   9.94258 
 8                    -4.23635  -2.85003   9.9757 
 19                   -3.21343  -6.13332   5.6473 
 19                   -0.11536   0.04386   12.32927 
 19                   -9.2836   -2.82455   12.42683 
 23                   -4.68114  -1.54264   8.98964 
 

 GradGradGradGradGradGradGradGradGradGradGradGradGradGradGradGradGradGrad
 Berny optimization.
 Initialization pass.
 Trust Radius=3.00D-01 FncErr=1.00D-07 GrdErr=1.00D-07 EigMax=2.50D+02 EigMin=1.00D-04
 Number of steps in this run=      2 maximum allowed number of steps=      2.
 GradGradGradGradGradGradGradGradGradGradGradGradGradGradGradGradGradGrad

 Symmetry turned off by external request.
 Stoichiometry    C8H8ClK3O40VW12(1-)
 Framework group  C1[X(C8H8ClK3O40VW12)]
 Deg. of freedom   213
 Full point group                 C1      NOp   1
                          Input orientation:                          
 ---------------------------------------------------------------------
 Center     Atomic      Atomic             Coordinates (Angstroms)
 Number     Number       Type             X           Y           Z
 ---------------------------------------------------------------------
      1         17           0       -9.647321    8.273507   10.544663
      2          6           0       -8.345330    4.250953   12.213902
      3          6           0       -9.140518    3.931885   11.097087
      4          6           0      -10.053143    2.867058   11.215364
      5          6           0      -10.205926    2.181871   12.415979
      6          6           0       -9.436510    2.535341   13.525454
      7          6           0       -8.494118    3.560230   13.413149
      8          1           0       -7.598968    5.045629   12.144433
      9          1           0      -10.656508    2.587140   10.347285
     10          1           0      -10.926954    1.363933   12.486466
     11          1           0       -9.559094    2.003045   14.471264
     12          1           0       -7.870680    3.823694   14.271307
     13          6           0       -9.080031    4.673443    9.836404
     14          6           0       -8.414917    5.827168    9.617718
     15          1           0       -9.663277    4.242283    9.014972
     16          1           0       -8.429689    6.294708    8.631924
     17          1           0       -7.791166    6.303871   10.373292
     18          8           0       -0.975174   -1.802650    7.465467
     19          8           0       -8.388815   -1.332451    7.461920
     20          8           0       -7.019150    1.346802   10.473565
     21          8           0       -2.334517   -4.398060   10.554985
     22         74           0       -3.399806    0.691195    6.478283
     23         74           0       -5.988778   -3.820876    6.558184
     24         74           0       -3.609056    0.868957   11.415955
     25         74           0       -5.761480   -3.866094   11.482642
     26         74           0       -2.429726   -2.592213    6.402035
     27         74           0       -6.935739   -0.534797    6.369589
     28         74           0       -6.814427   -0.250983   11.561846
     29         74           0       -2.543514   -2.739944   11.603515
     30          8           0       -3.165220    1.873257    5.296541
     31          8           0       -6.122321   -5.071534    5.416267
     32          8           0       -2.680332    1.708856   12.565406
     33          8           0       -6.681044   -4.666566   12.664880
     34          8           0       -2.658458   -0.917157    5.588858
     35          8           0       -6.699829   -2.269113    5.620323
     36          8           0       -5.304588    0.549600   12.359112
     37          8           0       -4.049792   -3.534632   12.407982
     38          8           0        0.315094   -0.020420    9.278272
     39          8           0       -9.690587   -3.041955    9.325405
     40          8           0       -6.344813    3.429236    8.664589
     41          8           0       -3.010970   -6.494958    8.743793
     42          8           0       -1.777531    0.744359    7.473031
     43          8           0       -7.596888   -3.883239    7.541093
     44          8           0       -4.488858    2.194949   10.425803
     45          8           0       -4.872780   -5.234135   10.530339
     46          8           0       -1.600292   -3.533773    5.254299
     47          8           0       -7.812361    0.276797    5.176598
     48          8           0       -8.035930   -0.165408   12.739105
     49          8           0       -1.308101   -2.860867   12.763560
     50         74           0       -1.243696   -0.537216    8.838314
     51         74           0       -8.131036   -2.539447    8.873848
     52         74           0       -5.869736    1.857163    9.043333
     53         74           0       -3.494799   -4.920549    9.163791
     54          8           0       -4.211426   -3.114389    6.073417
     55          8           0       -5.147974   -0.063173    6.018137
     56          8           0       -6.166967   -1.999947   11.909227
     57          8           0       -3.171499   -0.991835   11.918533
     58          8           0       -4.349616    1.579109    7.833748
     59          8           0       -5.008294   -4.684028    7.924556
     60          8           0       -2.318666    0.562925   10.076591
     61          8           0       -7.044007   -3.615668   10.130111
     62          8           0       -2.570078   -3.910342    7.868676
     63          8           0       -6.806046    0.793571    7.802636
     64          8           0       -7.821290   -1.177980   10.140379
     65          8           0       -1.553831   -1.874553   10.139794
     66          8           0       -3.353074   -1.160898    8.011749
     67          8           0       -6.014681   -1.961562    8.033816
     68          8           0       -5.112252   -0.210856    9.942579
     69          8           0       -4.236348   -2.850026    9.975699
     70         19           0       -3.213425   -6.133320    5.647296
     71         19           0       -0.115362    0.043856   12.329268
     72         19           0       -9.283602   -2.824546   12.426835
     73         23           0       -4.681140   -1.542644    8.989643
 ---------------------------------------------------------------------
 Rotational constants (GHZ):           0.0172149           0.0132210           0.0129978
 Standard basis: def2SVP (5D, 7F)
  1217 basis functions,  2313 primitive gaussians,  1337 cartesian basis functions
   321 alpha electrons      321 beta electrons
       nuclear repulsion energy     20976.8969520085 Hartrees.
 NAtoms=   73 NActive=   73 NUniq=   73 SFac= 1.00D+00 NAtFMM=   60 NAOKFM=T Big=T
 Integral buffers will be    131072 words long.
 Raffenetti 2 integral format.
 Two-electron integral symmetry is turned off.
 Nuclear repulsion after empirical dispersion term =    20976.6205261509 Hartrees.
 Force PCM accuracy= 1.00D-10.
 ------------------------------------------------------------------------------
 Polarizable Continuum Model (PCM)
 =================================
 Model                : PCM (using non-symmetric T matrix).
 Atomic radii         : SMD-Coulomb.
 Polarization charges : Total charges.
 Charge compensation  : None.
 Solution method      : On-the-fly selection.
 Cavity type          : VdW (van der Waals Surface) (Alpha=1.000).
 Cavity algorithm     : GePol (No added spheres)
                        Default sphere list used, NSphG=   73.
                        Lebedev-Laikov grids with approx.  5.0 points / Ang**2.
                        Smoothing algorithm: York/Karplus (Gamma=1.0000).
                        Polarization charges: spherical gaussians, with
                                              point-specific exponents (IZeta= 3).
                        Self-potential: point-specific (ISelfS= 7).
                        Self-field    : sphere-specific E.n sum rule (ISelfD= 2).
 1st derivatives      : Analytical E(r).r(x)/FMM algorithm (CHGder, D1EAlg=3).
                        Cavity 1st derivative terms included.
 Solvent              : Acetonitrile, Eps=  35.688000 Eps(inf)=   1.806874
 ------------------------------------------------------------------------------
 ------------------------------------------------------------------------------
 Atomic radii for non-electrostatic terms: SMD-CDS.
 ------------------------------------------------------------------------------
 Nuclear repulsion after PCM non-electrostatic terms =    20976.6148256598 Hartrees.
 One-electron integrals computed using PRISM.
   1 Symmetry operations used in ECPInt.
 ECPInt:  NShTT=  127765 NPrTT=  468030 LenC2=   96524 LenP2D=  220885.
 LDataN:  DoStor=T MaxTD1= 8 Len=  415
 NBasis=  1217 RedAO= T EigKep=  1.38D-04  NBF=  1217
 NBsUse=  1217 1.00D-06 EigRej= -1.00D+00 NBFU=  1217
 Defaulting to unpruned grid for atomic number  74.
 Defaulting to unpruned grid for atomic number  74.
 Defaulting to unpruned grid for atomic number  74.
 Defaulting to unpruned grid for atomic number  74.
 Defaulting to unpruned grid for atomic number  74.
 Defaulting to unpruned grid for atomic number  74.
 Defaulting to unpruned grid for atomic number  74.
 Defaulting to unpruned grid for atomic number  74.
 Initial guess from the checkpoint file:  "a.chk"
 B after Tr=     0.000980   -0.000695    0.000195
         Rot=    1.000000   -0.000008    0.000011    0.000030 Ang=  -0.00 deg.
 Requested convergence on RMS density matrix=1.00D-08 within  64 cycles.
 Requested convergence on MAX density matrix=1.00D-06.
 Requested convergence on             energy=1.00D-06.
 No special actions if energy rises.
 Defaulting to unpruned grid for atomic number  74.
 Defaulting to unpruned grid for atomic number  74.
 Defaulting to unpruned grid for atomic number  74.
 Defaulting to unpruned grid for atomic number  74.
 Defaulting to unpruned grid for atomic number  74.
 Defaulting to unpruned grid for atomic number  74.
 Defaulting to unpruned grid for atomic number  74.
 Defaulting to unpruned grid for atomic number  74.
 Defaulting to unpruned grid for atomic number  74.
 Defaulting to unpruned grid for atomic number  74.
 Defaulting to unpruned grid for atomic number  74.
 Defaulting to unpruned grid for atomic number  74.
 Defaulting to unpruned grid for atomic number  74.
 Defaulting to unpruned grid for atomic number  74.
 Defaulting to unpruned grid for atomic number  74.
 Defaulting to unpruned grid for atomic number  74.
 Defaulting to unpruned grid for atomic number  74.
 Defaulting to unpruned grid for atomic number  74.
 Defaulting to unpruned grid for atomic number  74.
 Defaulting to unpruned grid for atomic number  74.
 Defaulting to unpruned grid for atomic number  74.
 Defaulting to unpruned grid for atomic number  74.
 Defaulting to unpruned grid for atomic number  74.
 Defaulting to unpruned grid for atomic number  74.
 Defaulting to unpruned grid for atomic number  74.
 Defaulting to unpruned grid for atomic number  74.
 Defaulting to unpruned grid for atomic number  74.
 Defaulting to unpruned grid for atomic number  74.
 Defaulting to unpruned grid for atomic number  74.
 Defaulting to unpruned grid for atomic number  74.
 Defaulting to unpruned grid for atomic number  74.
 Defaulting to unpruned grid for atomic number  74.
 Defaulting to unpruned grid for atomic number  74.
 Defaulting to unpruned grid for atomic number  74.
 Defaulting to unpruned grid for atomic number  74.
 Defaulting to unpruned grid for atomic number  74.
 Defaulting to unpruned grid for atomic number  74.
 Defaulting to unpruned grid for atomic number  74.
 Defaulting to unpruned grid for atomic number  74.
 Defaulting to unpruned grid for atomic number  74.
 Defaulting to unpruned grid for atomic number  74.
 Defaulting to unpruned grid for atomic number  74.
 Defaulting to unpruned grid for atomic number  74.
 Defaulting to unpruned grid for atomic number  74.
 Defaulting to unpruned grid for atomic number  74.
 Defaulting to unpruned grid for atomic number  74.
 Defaulting to unpruned grid for atomic number  74.
 Defaulting to unpruned grid for atomic number  74.
 Defaulting to unpruned grid for atomic number  74.
 Defaulting to unpruned grid for atomic number  74.
 Defaulting to unpruned grid for atomic number  74.
 Defaulting to unpruned grid for atomic number  74.
 Defaulting to unpruned grid for atomic number  74.
 Defaulting to unpruned grid for atomic number  74.
 Defaulting to unpruned grid for atomic number  74.
 Defaulting to unpruned grid for atomic number  74.
 Inv3:  Mode=1 IEnd=    87318075.
 Iteration    1 A*A^-1 deviation from unit magnitude is 3.44D-15 for   1468.
 Iteration    1 A*A^-1 deviation from orthogonality  is 3.11D-15 for    577    198.
 Iteration    1 A^-1*A deviation from unit magnitude is 3.77D-15 for   3062.
 Iteration    1 A^-1*A deviation from orthogonality  is 7.12D-09 for    813    736.
 Iteration    2 A*A^-1 deviation from unit magnitude is 5.33D-15 for   3469.
 Iteration    2 A*A^-1 deviation from orthogonality  is 5.31D-15 for    954    719.
 Iteration    2 A^-1*A deviation from unit magnitude is 1.33D-15 for   2709.
 Iteration    2 A^-1*A deviation from orthogonality  is 6.36D-16 for   1442   1303.
 Error on total polarization charges =  0.01613
 SCF Done:  E(RwB97XD) =  -7327.70183098     A.U. after   10 cycles
            NFock= 10  Conv=0.53D-08     -V/T= 2.0832
 SMD-CDS (non-electrostatic) energy       (kcal/mol) =      -3.58
 (included in total energy above)
 QCSCF skips out because SCF is already converged.

 **********************************************************************

            Population analysis using the SCF Density.

 **********************************************************************

 Alpha  occ. eigenvalues -- -197.29480-130.00087-130.00084-129.99980-101.48340
 Alpha  occ. eigenvalues --  -22.62600 -19.33641 -19.33633 -19.33630 -19.33608
 Alpha  occ. eigenvalues --  -19.30728 -19.30688 -19.30686 -19.30682 -19.30675
 Alpha  occ. eigenvalues --  -19.30668 -19.30666 -19.30636 -19.30560 -19.30372
 Alpha  occ. eigenvalues --  -19.30345 -19.30179 -19.29319 -19.29313 -19.29298
 Alpha  occ. eigenvalues --  -19.29276 -19.29267 -19.29257 -19.29225 -19.29202
 Alpha  occ. eigenvalues --  -19.29199 -19.29173 -19.29171 -19.29146 -19.29131
 Alpha  occ. eigenvalues --  -19.29098 -19.29090 -19.29085 -19.29084 -19.29058
 Alpha  occ. eigenvalues --  -19.29056 -19.29007 -19.28987 -19.28966 -19.28936
 Alpha  occ. eigenvalues --  -19.28858 -19.11557 -19.11549 -19.11540 -13.37490
 Alpha  occ. eigenvalues --  -13.37488 -13.37377 -10.70420 -10.70418 -10.70413
 Alpha  occ. eigenvalues --  -10.70412 -10.70411 -10.70409 -10.70308 -10.70301
 Alpha  occ. eigenvalues --  -10.70295 -10.29847 -10.29342 -10.29283 -10.29057
 Alpha  occ. eigenvalues --  -10.28967 -10.28954 -10.28079 -10.27509  -9.38815
 Alpha  occ. eigenvalues --   -7.13641  -7.13593  -7.13585  -3.23322  -3.23319
 Alpha  occ. eigenvalues --   -3.23307  -3.23299  -3.23293  -3.23279  -3.23263
 Alpha  occ. eigenvalues --   -3.23259  -3.23229  -3.22981  -3.22968  -3.22788
 Alpha  occ. eigenvalues --   -2.91832  -1.94211  -1.94177  -1.94165  -1.87722
 Alpha  occ. eigenvalues --   -1.87677  -1.87662  -1.87633  -1.87491  -1.87473
 Alpha  occ. eigenvalues --   -1.87470  -1.87454  -1.87430  -1.87281  -1.87251
 Alpha  occ. eigenvalues --   -1.87100  -1.86630  -1.86512  -1.86502  -1.86485
 Alpha  occ. eigenvalues --   -1.86460  -1.86439  -1.86346  -1.86337  -1.86319
 Alpha  occ. eigenvalues --   -1.86300  -1.86294  -1.86265  -1.86151  -1.86137
 Alpha  occ. eigenvalues --   -1.86126  -1.86118  -1.86046  -1.86032  -1.85992
 Alpha  occ. eigenvalues --   -1.85925  -1.85908  -1.85809  -1.85719  -1.85671
 Alpha  occ. eigenvalues --   -1.51181  -1.51177  -1.51075  -1.13067  -1.11298
 Alpha  occ. eigenvalues --   -1.11215  -1.11211  -1.08969  -1.08532  -1.08491
 Alpha  occ. eigenvalues --   -1.08321  -1.07569  -1.07511  -1.07499  -1.06901
 Alpha  occ. eigenvalues --   -1.06894  -1.06874  -1.06328  -1.06310  -1.05318
 Alpha  occ. eigenvalues --   -1.05309  -1.04982  -1.04978  -1.04969  -1.04193
 Alpha  occ. eigenvalues --   -1.04183  -1.04172  -1.04029  -1.04009  -1.03998
 Alpha  occ. eigenvalues --   -1.03942  -1.03918  -1.03898  -1.03764  -1.03741
 Alpha  occ. eigenvalues --   -1.03619  -1.03554  -1.03305  -1.03264  -1.03119
 Alpha  occ. eigenvalues --   -1.03106  -1.03027  -1.02964  -0.94363  -0.86650
 Alpha  occ. eigenvalues --   -0.86648  -0.86552  -0.86485  -0.86456  -0.86456
 Alpha  occ. eigenvalues --   -0.86454  -0.86440  -0.86364  -0.86327  -0.82802
 Alpha  occ. eigenvalues --   -0.79743  -0.71593  -0.69658  -0.68000  -0.64619
 Alpha  occ. eigenvalues --   -0.63994  -0.63915  -0.63904  -0.63325  -0.63306
 Alpha  occ. eigenvalues --   -0.63179  -0.62927  -0.62688  -0.62607  -0.62006
 Alpha  occ. eigenvalues --   -0.61628  -0.61616  -0.61519  -0.61259  -0.61249
 Alpha  occ. eigenvalues --   -0.61180  -0.60418  -0.59489  -0.59470  -0.59456
 Alpha  occ. eigenvalues --   -0.59419  -0.59370  -0.58568  -0.58005  -0.57976
 Alpha  occ. eigenvalues --   -0.57885  -0.57075  -0.57038  -0.57009  -0.56297
 Alpha  occ. eigenvalues --   -0.56278  -0.56123  -0.55704  -0.54862  -0.54811
 Alpha  occ. eigenvalues --   -0.54771  -0.54517  -0.54244  -0.54112  -0.54099
 Alpha  occ. eigenvalues --   -0.54020  -0.53962  -0.53239  -0.53202  -0.53072
 Alpha  occ. eigenvalues --   -0.53039  -0.52905  -0.52708  -0.52672  -0.52641
 Alpha  occ. eigenvalues --   -0.52604  -0.52511  -0.52470  -0.52432  -0.51613
 Alpha  occ. eigenvalues --   -0.51593  -0.51327  -0.51309  -0.51265  -0.51226
 Alpha  occ. eigenvalues --   -0.51172  -0.51163  -0.50929  -0.50767  -0.50591
 Alpha  occ. eigenvalues --   -0.50573  -0.50566  -0.49875  -0.49869  -0.49299
 Alpha  occ. eigenvalues --   -0.49277  -0.49247  -0.49216  -0.49163  -0.49076
 Alpha  occ. eigenvalues --   -0.48898  -0.48079  -0.48029  -0.47924  -0.47677
 Alpha  occ. eigenvalues --   -0.47388  -0.47290  -0.47248  -0.46998  -0.46933
 Alpha  occ. eigenvalues --   -0.46814  -0.46551  -0.46492  -0.46481  -0.46190
 Alpha  occ. eigenvalues --   -0.46142  -0.46105  -0.45588  -0.45103  -0.44920
 Alpha  occ. eigenvalues --   -0.44877  -0.44214  -0.44144  -0.44034  -0.43502
 Alpha  occ. eigenvalues --   -0.43281  -0.43230  -0.43116  -0.43102  -0.43069
 Alpha  occ. eigenvalues --   -0.42704  -0.42682  -0.42658  -0.42590  -0.42580
 Alpha  occ. eigenvalues --   -0.42498  -0.42465  -0.42443  -0.42288  -0.42270
 Alpha  occ. eigenvalues --   -0.42254  -0.42027  -0.41916  -0.41860  -0.41840
 Alpha  occ. eigenvalues --   -0.41165  -0.41161  -0.41129  -0.41017  -0.40546
 Alpha  occ. eigenvalues --   -0.40519  -0.40500  -0.40379  -0.39444  -0.39433
 Alpha  occ. eigenvalues --   -0.36975  -0.32542  -0.29170  -0.25122  -0.25097
 Alpha  occ. eigenvalues --   -0.23551
 Alpha virt. eigenvalues --   -0.09489  -0.09267  -0.08535  -0.08474  -0.07056
 Alpha virt. eigenvalues --   -0.07031  -0.06941  -0.04498  -0.04174  -0.04130
 Alpha virt. eigenvalues --   -0.03720  -0.03496  -0.03448  -0.03248  -0.03147
 Alpha virt. eigenvalues --   -0.03109  -0.03080  -0.02220  -0.02168  -0.02133
 Alpha virt. eigenvalues --   -0.01517  -0.01500  -0.01452  -0.01308  -0.01247
 Alpha virt. eigenvalues --   -0.00106  -0.00088  -0.00028   0.01398   0.01458
 Alpha virt. eigenvalues --    0.01906   0.01930   0.02029   0.02129   0.02167
 Alpha virt. eigenvalues --    0.02179   0.02246   0.02292   0.02765   0.02835
 Alpha virt. eigenvalues --    0.02900   0.02976   0.03009   0.04406   0.04524
 Alpha virt. eigenvalues --    0.06756   0.07279   0.07525   0.07546   0.07803
 Alpha virt. eigenvalues --    0.08018   0.08481   0.08531   0.08796   0.09155
 Alpha virt. eigenvalues --    0.09340   0.09387   0.09664   0.09887   0.10257
 Alpha virt. eigenvalues --    0.10332   0.10377   0.10442   0.10483   0.10641
 Alpha virt. eigenvalues --    0.10895   0.11051   0.11061   0.11642   0.11724
 Alpha virt. eigenvalues --    0.12216   0.13121   0.13235   0.13324   0.13594
 Alpha virt. eigenvalues --    0.13754   0.14454   0.14553   0.14679   0.14998
 Alpha virt. eigenvalues --    0.15558   0.16155   0.16337   0.16580   0.16754
 Alpha virt. eigenvalues --    0.16771   0.16907   0.17083   0.17249   0.17719
 Alpha virt. eigenvalues --    0.17909   0.18163   0.18225   0.18373   0.18578
 Alpha virt. eigenvalues --    0.18748   0.19058   0.19304   0.19412   0.19577
 Alpha virt. eigenvalues --    0.19654   0.20192   0.20282   0.20493   0.20588
 Alpha virt. eigenvalues --    0.20759   0.20883   0.20992   0.21369   0.21420
 Alpha virt. eigenvalues --    0.21533   0.21629   0.21723   0.21871   0.22033
 Alpha virt. eigenvalues --    0.22449   0.22734   0.22915   0.23133   0.23218
 Alpha virt. eigenvalues --    0.23468   0.23786   0.23982   0.24279   0.24581
 Alpha virt. eigenvalues --    0.24743   0.25212   0.25428   0.25660   0.25861
 Alpha virt. eigenvalues --    0.26009   0.26209   0.26423   0.26603   0.26664
 Alpha virt. eigenvalues --    0.26965   0.27226   0.27358   0.27443   0.27754
 Alpha virt. eigenvalues --    0.28029   0.28273   0.28323   0.28655   0.28744
 Alpha virt. eigenvalues --    0.29167   0.29486   0.29891   0.30283   0.30508
 Alpha virt. eigenvalues --    0.30724   0.30913   0.31254   0.31486   0.31833
 Alpha virt. eigenvalues --    0.32309   0.34758   0.35209   0.35764   0.36322
 Alpha virt. eigenvalues --    0.36661   0.36926   0.37273   0.38110   0.38402
 Alpha virt. eigenvalues --    0.38648   0.39192   0.39521   0.39643   0.40228
 Alpha virt. eigenvalues --    0.40706   0.40852   0.40968   0.41123   0.41747
 Alpha virt. eigenvalues --    0.42123   0.42479   0.42807   0.43292   0.43547
 Alpha virt. eigenvalues --    0.43701   0.44505   0.44766   0.44895   0.45270
 Alpha virt. eigenvalues --    0.45785   0.46332   0.46549   0.46686   0.47354
 Alpha virt. eigenvalues --    0.47393   0.47646   0.47854   0.48086   0.48221
 Alpha virt. eigenvalues --    0.48423   0.48457   0.48585   0.48695   0.48983
 Alpha virt. eigenvalues --    0.49156   0.49399   0.49449   0.49784   0.49835
 Alpha virt. eigenvalues --    0.50182   0.50518   0.50656   0.50724   0.50979
 Alpha virt. eigenvalues --    0.51618   0.51710   0.51858   0.52217   0.52424
 Alpha virt. eigenvalues --    0.52664   0.52897   0.53014   0.53146   0.53312
 Alpha virt. eigenvalues --    0.53652   0.54037   0.54278   0.54352   0.54511
 Alpha virt. eigenvalues --    0.54943   0.55393   0.55644   0.56352   0.56435
 Alpha virt. eigenvalues --    0.56831   0.57398   0.57776   0.58026   0.58289
 Alpha virt. eigenvalues --    0.58568   0.59076   0.59447   0.60144   0.60768
 Alpha virt. eigenvalues --    0.61353   0.62287   0.62589   0.62768   0.63215
 Alpha virt. eigenvalues --    0.64121   0.65266   0.65677   0.65712   0.65930
 Alpha virt. eigenvalues --    0.66116   0.66549   0.66996   0.67369   0.67427
 Alpha virt. eigenvalues --    0.67825   0.68332   0.69640   0.70232   0.71091
 Alpha virt. eigenvalues --    0.71396   0.71889   0.72132   0.72198   0.72257
 Alpha virt. eigenvalues --    0.72549   0.72704   0.73244   0.73383   0.73974
 Alpha virt. eigenvalues --    0.74602   0.74837   0.75540   0.75661   0.75870
 Alpha virt. eigenvalues --    0.76167   0.76781   0.76895   0.77178   0.77459
 Alpha virt. eigenvalues --    0.77955   0.78465   0.79056   0.79476   0.79718
 Alpha virt. eigenvalues --    0.80271   0.80504   0.80629   0.80717   0.81490
 Alpha virt. eigenvalues --    0.81522   0.81816   0.82016   0.82516   0.83182
 Alpha virt. eigenvalues --    0.84006   0.84226   0.84761   0.85371   0.85843
 Alpha virt. eigenvalues --    0.87187   0.87538   0.87962   0.88050   0.88730
 Alpha virt. eigenvalues --    0.88881   0.89016   0.89491   0.89648   0.90246
 Alpha virt. eigenvalues --    0.90706   0.90960   0.91225   0.91481   0.91739
 Alpha virt. eigenvalues --    0.92844   0.93045   0.93548   0.93884   0.94063
 Alpha virt. eigenvalues --    0.94190   0.94785   0.95650   0.95898   0.96527
 Alpha virt. eigenvalues --    0.96828   0.97056   0.97278   0.97700   0.97795
 Alpha virt. eigenvalues --    0.98134   0.98287   0.98401   0.98542   0.98781
 Alpha virt. eigenvalues --    0.98910   0.99436   0.99918   1.00400   1.00601
 Alpha virt. eigenvalues --    1.00885   1.01275   1.01573   1.01672   1.01731
 Alpha virt. eigenvalues --    1.02121   1.02235   1.02436   1.02456   1.02649
 Alpha virt. eigenvalues --    1.02907   1.03434   1.03523   1.03663   1.03836
 Alpha virt. eigenvalues --    1.04118   1.04194   1.04362   1.04625   1.04693
 Alpha virt. eigenvalues --    1.04973   1.05088   1.05220   1.05419   1.05796
 Alpha virt. eigenvalues --    1.05930   1.06353   1.06475   1.06986   1.07137
 Alpha virt. eigenvalues --    1.07521   1.07823   1.08614   1.09069   1.09264
 Alpha virt. eigenvalues --    1.09421   1.09851   1.09902   1.10121   1.10229
 Alpha virt. eigenvalues --    1.10745   1.10847   1.10959   1.11026   1.11277
 Alpha virt. eigenvalues --    1.11480   1.11673   1.11749   1.12093   1.12481
 Alpha virt. eigenvalues --    1.12796   1.13446   1.13614   1.14142   1.14814
 Alpha virt. eigenvalues --    1.15277   1.15767   1.16114   1.16271   1.16631
 Alpha virt. eigenvalues --    1.17050   1.17652   1.17848   1.18629   1.18664
 Alpha virt. eigenvalues --    1.19479   1.20602   1.20957   1.21166   1.21315
 Alpha virt. eigenvalues --    1.21482   1.21924   1.22155   1.22981   1.23543
 Alpha virt. eigenvalues --    1.25109   1.26064   1.26499   1.26717   1.27076
 Alpha virt. eigenvalues --    1.27555   1.28089   1.28345   1.28525   1.28605
 Alpha virt. eigenvalues --    1.28795   1.29141   1.29165   1.29413   1.29703
 Alpha virt. eigenvalues --    1.30137   1.30231   1.30385   1.30770   1.30834
 Alpha virt. eigenvalues --    1.31202   1.32199   1.32496   1.33001   1.33203
 Alpha virt. eigenvalues --    1.33271   1.33465   1.33651   1.33899   1.34051
 Alpha virt. eigenvalues --    1.34304   1.34353   1.34567   1.34804   1.34904
 Alpha virt. eigenvalues --    1.34935   1.35233   1.35607   1.35788   1.36099
 Alpha virt. eigenvalues --    1.36163   1.36581   1.36748   1.36841   1.36999
 Alpha virt. eigenvalues --    1.37156   1.37306   1.37584   1.37908   1.37919
 Alpha virt. eigenvalues --    1.38190   1.38507   1.38711   1.38961   1.39079
 Alpha virt. eigenvalues --    1.39355   1.39519   1.39609   1.39785   1.40196
 Alpha virt. eigenvalues --    1.40323   1.40467   1.40541   1.40715   1.40953
 Alpha virt. eigenvalues --    1.41098   1.41238   1.41472   1.41908   1.41990
 Alpha virt. eigenvalues --    1.42585   1.43047   1.43297   1.43448   1.43493
 Alpha virt. eigenvalues --    1.43914   1.44279   1.44564   1.44694   1.45671
 Alpha virt. eigenvalues --    1.46323   1.47162   1.47585   1.47704   1.48098
 Alpha virt. eigenvalues --    1.48243   1.48662   1.49191   1.49587   1.49887
 Alpha virt. eigenvalues --    1.50496   1.51011   1.51316   1.51913   1.53314
 Alpha virt. eigenvalues --    1.53716   1.55354   1.55786   1.55797   1.56016
 Alpha virt. eigenvalues --    1.56181   1.56354   1.56664   1.56766   1.57149
 Alpha virt. eigenvalues --    1.57186   1.58025   1.58251   1.59233   1.59331
 Alpha virt. eigenvalues --    1.59845   1.60244   1.60355   1.60471   1.60548
 Alpha virt. eigenvalues --    1.60698   1.61205   1.61902   1.62215   1.62405
 Alpha virt. eigenvalues --    1.64069   1.64441   1.65125   1.65751   1.66770
 Alpha virt. eigenvalues --    1.67479   1.67922   1.69883   1.70523   1.70867
 Alpha virt. eigenvalues --    1.71282   1.71649   1.72335   1.73226   1.74155
 Alpha virt. eigenvalues --    1.75271   1.75451   1.75567   1.75942   1.76769
 Alpha virt. eigenvalues --    1.76942   1.76994   1.77614   1.77857   1.78723
 Alpha virt. eigenvalues --    1.78884   1.79378   1.79937   1.80491   1.80751
 Alpha virt. eigenvalues --    1.81173   1.81282   1.82092   1.82271   1.82935
 Alpha virt. eigenvalues --    1.83019   1.83257   1.83952   1.84185   1.84533
 Alpha virt. eigenvalues --    1.85193   1.85511   1.85752   1.86121   1.86332
 Alpha virt. eigenvalues --    1.86545   1.87156   1.87426   1.88162   1.88668
 Alpha virt. eigenvalues --    1.89369   1.89927   1.90164   1.90344   1.90374
 Alpha virt. eigenvalues --    1.90773   1.90965   1.91306   1.92346   1.93264
 Alpha virt. eigenvalues --    1.94877   1.95299   1.95488   1.95698   1.96039
 Alpha virt. eigenvalues --    1.98124   1.99284   1.99483   1.99550   2.04160
 Alpha virt. eigenvalues --    2.06269   2.07288   2.08166   2.08568   2.08743
 Alpha virt. eigenvalues --    2.09058   2.09127   2.09538   2.10192   2.11045
 Alpha virt. eigenvalues --    2.11533   2.11991   2.12746   2.14764   2.15613
 Alpha virt. eigenvalues --    2.15989   2.16856   2.17266   2.17473   2.17803
 Alpha virt. eigenvalues --    2.20018   2.20426   2.20503   2.20712   2.20887
 Alpha virt. eigenvalues --    2.21178   2.22233   2.24327   2.25358   2.26105
 Alpha virt. eigenvalues --    2.26430   2.26811   2.27378   2.28496   2.28956
 Alpha virt. eigenvalues --    2.29170   2.29891   2.30429   2.33479   2.35695
 Alpha virt. eigenvalues --    2.36761   2.40270   2.40997   2.41063   2.43630
 Alpha virt. eigenvalues --    2.44267   2.50403   2.51598   2.57246   2.64719
 Alpha virt. eigenvalues --    2.64781   2.64917   2.65445   2.65969   2.66593
 Alpha virt. eigenvalues --    2.66765   2.66827   2.66938   2.66956   2.67053
 Alpha virt. eigenvalues --    2.67095   2.67155   2.67324   2.67350   2.67411
 Alpha virt. eigenvalues --    2.67642   2.67681   2.67790   2.67836   2.67895
 Alpha virt. eigenvalues --    2.68602   2.68904   2.69224   2.69378   2.70000
 Alpha virt. eigenvalues --    2.70187   2.70293   2.70647   2.70719   2.70825
 Alpha virt. eigenvalues --    2.70994   2.71368   2.71424   2.71525   2.71589
 Alpha virt. eigenvalues --    2.71651   2.71910   2.72701   2.72928   2.72973
 Alpha virt. eigenvalues --    2.73112   2.73203   2.73256   2.73335   2.73373
 Alpha virt. eigenvalues --    2.73500   2.73760   2.73879   2.73903   2.73988
 Alpha virt. eigenvalues --    2.74050   2.74145   2.74315   2.74525   2.74694
 Alpha virt. eigenvalues --    2.74756   2.74902   2.75045   2.75560   2.75950
 Alpha virt. eigenvalues --    2.76156   2.76303   2.76453   2.76706   2.76895
 Alpha virt. eigenvalues --    2.77076   2.77197   2.77203   2.78436   2.78583
 Alpha virt. eigenvalues --    2.78630   2.78908   2.79789   2.80064   2.80157
 Alpha virt. eigenvalues --    2.81094   2.81822   2.81836   2.82133   2.82320
 Alpha virt. eigenvalues --    2.82359   2.82713   2.83098   2.83263   2.83651
 Alpha virt. eigenvalues --    2.83771   2.83921   2.83995   2.84245   2.85102
 Alpha virt. eigenvalues --    2.85552   2.86124   2.86196   2.86309   2.86359
 Alpha virt. eigenvalues --    2.86607   2.86797   2.86918   2.88247   2.88541
 Alpha virt. eigenvalues --    2.88691   2.89101   2.89676   2.89745   2.89836
 Alpha virt. eigenvalues --    2.89928   2.90019   2.90100   2.90588   2.90661
 Alpha virt. eigenvalues --    2.90779   2.91755   2.91899   2.92062   2.92084
 Alpha virt. eigenvalues --    2.92275   2.92505   2.92771   2.92908   2.93051
 Alpha virt. eigenvalues --    2.93362   2.93507   2.93665   2.93988   2.94122
 Alpha virt. eigenvalues --    2.94184   2.95001   2.95173   2.95381   2.95730
 Alpha virt. eigenvalues --    2.95816   2.95843   2.96385   2.96581   2.96644
 Alpha virt. eigenvalues --    2.96735   2.96922   2.96966   2.97198   2.97401
 Alpha virt. eigenvalues --    2.97584   2.97725   2.97922   2.98312   2.99148
 Alpha virt. eigenvalues --    2.99310   2.99401   2.99643   2.99714   3.00033
 Alpha virt. eigenvalues --    3.00089   3.00399   3.01016   3.01355   3.01399
 Alpha virt. eigenvalues --    3.02707   3.03115   3.03349   3.03696   3.05205
 Alpha virt. eigenvalues --    3.06554   3.06763   3.07199   3.11037   3.11666
 Alpha virt. eigenvalues --    3.11794   3.11921   3.12219   3.12693   3.13736
 Alpha virt. eigenvalues --    3.13869   3.14033   3.16772   3.19739   3.21791
 Alpha virt. eigenvalues --    3.21860   3.23918   3.32608   3.41206   3.41576
 Alpha virt. eigenvalues --    3.42211   3.43250   3.44979   3.44987   3.45931
 Alpha virt. eigenvalues --    3.46347   3.46427   3.47238   3.47518   3.47878
 Alpha virt. eigenvalues --    3.48158   3.51220   3.51827   3.52404   3.53597
 Alpha virt. eigenvalues --    3.53923   3.54346   3.54671   3.54793   3.55006
 Alpha virt. eigenvalues --    3.55258   3.55385   3.55582   3.56684   3.57483
 Alpha virt. eigenvalues --    3.57680   3.58550   3.59495   3.59630   3.60334
 Alpha virt. eigenvalues --    3.60636   3.61265   3.61540   3.62122   3.62420
 Alpha virt. eigenvalues --    3.69449   3.74759  68.64132  68.65282  68.66258
 Alpha virt. eigenvalues --   68.68345  68.72536  68.73572  68.81666  68.82642
 Alpha virt. eigenvalues --   68.83394  68.85559  68.86743  68.88066 576.22573
 Alpha virt. eigenvalues --  576.23697 576.24652 576.26693 576.30890 576.31914
 Alpha virt. eigenvalues --  576.39859 576.40811 576.41543 576.43614 576.44768
 Alpha virt. eigenvalues --  576.46083
          Condensed to atoms (all electrons):
 Mulliken charges:
               1
     1  Cl  -0.894639
     2  C   -0.079896
     3  C    0.048694
     4  C   -0.079106
     5  C   -0.033767
     6  C   -0.033880
     7  C   -0.049813
     8  H    0.030391
     9  H    0.029323
    10  H    0.041099
    11  H    0.036906
    12  H    0.039965
    13  C   -0.123652
    14  C    0.023047
    15  H    0.021169
    16  H    0.036909
    17  H    0.024512
    18  O   -0.663923
    19  O   -0.663678
    20  O   -0.655413
    21  O   -0.664338
    22  W    1.735694
    23  W    1.678058
    24  W    1.688027
    25  W    1.698256
    26  W    1.678043
    27  W    1.729679
    28  W    1.621295
    29  W    1.689099
    30  O   -0.320100
    31  O   -0.365774
    32  O   -0.367925
    33  O   -0.360243
    34  O   -0.665183
    35  O   -0.671456
    36  O   -0.661890
    37  O   -0.664873
    38  O   -0.368196
    39  O   -0.364886
    40  O   -0.297442
    41  O   -0.365213
    42  O   -0.670824
    43  O   -0.664370
    44  O   -0.661480
    45  O   -0.666168
    46  O   -0.368717
    47  O   -0.320485
    48  O   -0.362210
    49  O   -0.362151
    50  W    1.675844
    51  W    1.681820
    52  W    1.685249
    53  W    1.687774
    54  O   -0.726372
    55  O   -0.709253
    56  O   -0.726673
    57  O   -0.724233
    58  O   -0.707144
    59  O   -0.727956
    60  O   -0.726253
    61  O   -0.722014
    62  O   -0.725806
    63  O   -0.708505
    64  O   -0.725620
    65  O   -0.727117
    66  O   -0.802706
    67  O   -0.801862
    68  O   -0.798868
    69  O   -0.810487
    70  K    0.863277
    71  K    0.863057
    72  K    0.860416
    73  V    1.194959
 Sum of Mulliken charges =  -1.00000
 Mulliken charges with hydrogens summed into heavy atoms:
               1
     1  Cl  -0.894639
     2  C   -0.049505
     3  C    0.048694
     4  C   -0.049783
     5  C    0.007332
     6  C    0.003026
     7  C   -0.009848
    13  C   -0.102483
    14  C    0.084468
    18  O   -0.663923
    19  O   -0.663678
    20  O   -0.655413
    21  O   -0.664338
    22  W    1.735694
    23  W    1.678058
    24  W    1.688027
    25  W    1.698256
    26  W    1.678043
    27  W    1.729679
    28  W    1.621295
    29  W    1.689099
    30  O   -0.320100
    31  O   -0.365774
    32  O   -0.367925
    33  O   -0.360243
    34  O   -0.665183
    35  O   -0.671456
    36  O   -0.661890
    37  O   -0.664873
    38  O   -0.368196
    39  O   -0.364886
    40  O   -0.297442
    41  O   -0.365213
    42  O   -0.670824
    43  O   -0.664370
    44  O   -0.661480
    45  O   -0.666168
    46  O   -0.368717
    47  O   -0.320485
    48  O   -0.362210
    49  O   -0.362151
    50  W    1.675844
    51  W    1.681820
    52  W    1.685249
    53  W    1.687774
    54  O   -0.726372
    55  O   -0.709253
    56  O   -0.726673
    57  O   -0.724233
    58  O   -0.707144
    59  O   -0.727956
    60  O   -0.726253
    61  O   -0.722014
    62  O   -0.725806
    63  O   -0.708505
    64  O   -0.725620
    65  O   -0.727117
    66  O   -0.802706
    67  O   -0.801862
    68  O   -0.798868
    69  O   -0.810487
    70  K    0.863277
    71  K    0.863057
    72  K    0.860416
    73  V    1.194959
 Electronic spatial extent (au):  <R**2>=         317274.0446
 Charge=             -1.0000 electrons
 Dipole moment (field-independent basis, Debye):
    X=             50.2844    Y=            -51.1674    Z=            -38.7393  Tot=             81.5313
 Quadrupole moment (field-independent basis, Debye-Ang):
   XX=          -1041.3023   YY=           -889.5649   ZZ=           -915.1972
   XY=            447.0772   XZ=            449.9971   YZ=           -477.3571
 Traceless Quadrupole moment (field-independent basis, Debye-Ang):
   XX=            -92.6141   YY=             59.1232   ZZ=             33.4909
   XY=            447.0772   XZ=            449.9971   YZ=           -477.3571
 Octapole moment (field-independent basis, Debye-Ang**2):
  XXX=          13200.3333  YYY=          -1088.2925  ZZZ=         -19152.9696  XYY=           6049.8473
  XXY=          -3535.7682  XXZ=          -9280.7489  XZZ=           7248.2183  YZZ=          -4168.2392
  YYZ=          -9053.0655  XYZ=           4726.4873
 Hexadecapole moment (field-independent basis, Debye-Ang**3):
 XXXX=        -155785.9817 YYYY=         -54155.0134 ZZZZ=        -346426.1152 XXXY=          35354.3698
 XXXZ=         120369.6907 YYYX=          20726.9529 YYYZ=         -13009.5128 ZZZX=         126577.6667
 ZZZY=         -35573.7200 XXYY=         -55155.8329 XXZZ=        -106276.9902 YYZZ=         -99967.7857
 XXYZ=         -41066.1537 YYXZ=          61321.8237 ZZXY=          49658.4481
 N-N= 2.097661482566D+04 E-N=-5.903759289575D+04  KE= 6.765139843513D+03
   1 Symmetry operations used in ECPInt.
 ECPInt:  NShTT=  127765 NPrTT=  468030 LenC2=   96524 LenP2D=  220885.
 LDataN:  DoStor=T MaxTD1= 9 Len=  602
 D1PCM: PCM CHGder 1st derivatives, ID1Alg=3 FixD1E=F DoIter=F DoCFld=F I1PDM=0.
 Calling FoFJK, ICntrl=      2127 FMM=T ISym2X=0 I1Cent= 0 IOpClX= 0 NMat=1 NMatS=1 NMatT=0.
 Defaulting to unpruned grid for atomic number  74.
 Defaulting to unpruned grid for atomic number  74.
 Defaulting to unpruned grid for atomic number  74.
 Defaulting to unpruned grid for atomic number  74.
 Defaulting to unpruned grid for atomic number  74.
 Defaulting to unpruned grid for atomic number  74.
 Defaulting to unpruned grid for atomic number  74.
 Defaulting to unpruned grid for atomic number  74.
 Defaulting to unpruned grid for atomic number  74.
 Defaulting to unpruned grid for atomic number  74.
 Defaulting to unpruned grid for atomic number  74.
 Defaulting to unpruned grid for atomic number  74.
 Defaulting to unpruned grid for atomic number  74.
 Defaulting to unpruned grid for atomic number  74.
 Defaulting to unpruned grid for atomic number  74.
 Defaulting to unpruned grid for atomic number  74.
 Defaulting to unpruned grid for atomic number  74.
 Defaulting to unpruned grid for atomic number  74.
 Defaulting to unpruned grid for atomic number  74.
 Defaulting to unpruned grid for atomic number  74.
 Defaulting to unpruned grid for atomic number  74.
 Defaulting to unpruned grid for atomic number  74.
 Defaulting to unpruned grid for atomic number  74.
 Defaulting to unpruned grid for atomic number  74.
 Defaulting to unpruned grid for atomic number  74.
 Defaulting to unpruned grid for atomic number  74.
 Defaulting to unpruned grid for atomic number  74.
 Defaulting to unpruned grid for atomic number  74.
 Defaulting to unpruned grid for atomic number  74.
 Defaulting to unpruned grid for atomic number  74.
 Defaulting to unpruned grid for atomic number  74.
 Defaulting to unpruned grid for atomic number  74.
 Defaulting to unpruned grid for atomic number  74.
 Defaulting to unpruned grid for atomic number  74.
 Defaulting to unpruned grid for atomic number  74.
 Defaulting to unpruned grid for atomic number  74.
 Defaulting to unpruned grid for atomic number  74.
 Defaulting to unpruned grid for atomic number  74.
 Defaulting to unpruned grid for atomic number  74.
 Defaulting to unpruned grid for atomic number  74.
 Defaulting to unpruned grid for atomic number  74.
 Defaulting to unpruned grid for atomic number  74.
 Defaulting to unpruned grid for atomic number  74.
 Defaulting to unpruned grid for atomic number  74.
 Defaulting to unpruned grid for atomic number  74.
 Defaulting to unpruned grid for atomic number  74.
 Defaulting to unpruned grid for atomic number  74.
 Defaulting to unpruned grid for atomic number  74.
 Defaulting to unpruned grid for atomic number  74.
 Defaulting to unpruned grid for atomic number  74.
 Defaulting to unpruned grid for atomic number  74.
 Defaulting to unpruned grid for atomic number  74.
 Defaulting to unpruned grid for atomic number  74.
 Defaulting to unpruned grid for atomic number  74.
 Defaulting to unpruned grid for atomic number  74.
 Defaulting to unpruned grid for atomic number  74.
 -------------------------------------------------------------------
 Center     Atomic                   Forces (Hartrees/Bohr)
 Number     Number              X              Y              Z
 -------------------------------------------------------------------
      1       17          -0.003096963    0.008028240    0.002402403
      2        6          -0.001540527   -0.000703427   -0.001941716
      3        6          -0.000823060   -0.002060534    0.003501233
      4        6           0.001389171    0.001998808    0.000539163
      5        6           0.000802684   -0.000045931    0.001353079
      6        6           0.000076533   -0.000313767    0.000795493
      7        6          -0.001044640   -0.001229408    0.000407741
      8        1          -0.000280807    0.000413866   -0.000164522
      9        1          -0.000395046    0.000129574   -0.000042010
     10        1          -0.000231227   -0.000138815    0.000220165
     11        1           0.000385748   -0.000293017   -0.000020015
     12        1           0.000078817    0.000213948    0.000164817
     13        6           0.007731586    0.010979510   -0.007651289
     14        6          -0.001568425   -0.017550650    0.000175600
     15        1          -0.001013623    0.000334951    0.000043433
     16        1          -0.000222862    0.000820431    0.000684398
     17        1          -0.001490523    0.000540333   -0.000533178
     18        8          -0.003377588    0.000521301    0.000796876
     19        8           0.003269590   -0.000806796    0.000996611
     20        8           0.002650114   -0.002983200   -0.000523124
     21        8          -0.002420137    0.002331362   -0.000993193
     22       74           0.001701503    0.010533913   -0.009728025
     23       74          -0.002460014   -0.010303922   -0.010076020
     24       74           0.006735247    0.008595264    0.010021146
     25       74          -0.007183788   -0.007321375    0.010176331
     26       74           0.008216586   -0.007678739   -0.010931014
     27       74          -0.008213362    0.008168774   -0.010670842
     28       74          -0.011691516    0.003051816    0.010924731
     29       74           0.010942162   -0.001835911    0.010816395
     30        8          -0.000524916   -0.002648843    0.003377087
     31        8           0.000253841    0.003072940    0.003163770
     32        8          -0.002352934   -0.002036304   -0.003160609
     33        8           0.002319547    0.001838724   -0.003250898
     34        8          -0.001185383   -0.000682203    0.003218857
     35        8           0.001393199    0.000110415    0.003428886
     36        8           0.000754486   -0.001497301   -0.003274378
     37        8          -0.000329254    0.001242719   -0.003362110
     38        8          -0.004444373   -0.001847629   -0.001312042
     39        8           0.004430064    0.001740229   -0.001392156
     40        8           0.002120463   -0.006133222    0.000914529
     41        8          -0.001071830    0.004765839    0.001303705
     42        8          -0.001979966   -0.002745206    0.001349138
     43        8           0.002409708    0.002509569    0.001087548
     44        8          -0.000317989   -0.003629496   -0.000649475
     45        8           0.000864719    0.003330964   -0.001328122
     46        8          -0.002701887    0.002926659    0.003156225
     47        8           0.002845746   -0.002448501    0.003243066
     48        8           0.004209251   -0.000477111   -0.003502536
     49        8          -0.003837582    0.000407785   -0.003145320
     50       74           0.014482240    0.004846409    0.003068984
     51       74          -0.014694841   -0.003876324    0.003300850
     52       74          -0.005745100    0.015860687   -0.003292019
     53       74           0.004771472   -0.014414908   -0.002861907
     54        8          -0.000647348    0.001475470    0.002063246
     55        8           0.000730303   -0.001520858    0.001984710
     56        8           0.001731427   -0.000167208   -0.002092368
     57        8          -0.001331428   -0.000540239   -0.002075031
     58        8           0.000318271   -0.002470169    0.001156777
     59        8           0.000363465    0.002186408    0.001420375
     60        8          -0.001384829   -0.001658226   -0.001528139
     61        8           0.001651278    0.001384670   -0.001400208
     62        8          -0.001288155    0.002006317    0.000743435
     63        8           0.001121394   -0.002551602    0.000496686
     64        8           0.002334801   -0.000226217   -0.000962799
     65        8          -0.002367103   -0.000253209   -0.000807033
     66        8          -0.026787690   -0.004890330    0.017120457
     67        8           0.027212288    0.005616410    0.017056135
     68        8           0.011422209   -0.025765376   -0.017228694
     69        8          -0.011245001    0.024644519   -0.017470127
     70       19           0.000192581   -0.000973574   -0.000644348
     71       19           0.000758124    0.000084822    0.000617984
     72       19          -0.000943266   -0.000342914    0.000561773
     73       23          -0.000435634    0.000348816    0.000161429
 -------------------------------------------------------------------
 Cartesian Forces:  Max     0.027212288 RMS     0.006161577

 GradGradGradGradGradGradGradGradGradGradGradGradGradGradGradGradGradGrad
 Berny optimization.
 Search for a local minimum.
 Step number   1 out of a maximum of    2
 All quantities printed in internal units (Hartrees-Bohrs-Radians)
 Second derivative matrix not updated -- first step.
 ITU=  0
     Eigenvalues ---    0.00000   0.00000   0.00000   0.00010   0.00093
     Eigenvalues ---    0.00095   0.00256   0.00543   0.00641   0.01642
     Eigenvalues ---    0.01952   0.02903   0.02928   0.03212   0.03432
     Eigenvalues ---    0.03454   0.03724   0.03734   0.04160   0.04497
     Eigenvalues ---    0.04605   0.04616   0.04648   0.04845   0.04856
     Eigenvalues ---    0.04990   0.05361   0.05577   0.05608   0.06374
     Eigenvalues ---    0.06412   0.06532   0.06783   0.06859   0.07046
     Eigenvalues ---    0.07300   0.07396   0.07602   0.08368   0.08392
     Eigenvalues ---    0.08724   0.08762   0.08908   0.08939   0.09740
     Eigenvalues ---    0.09975   0.10120   0.10425   0.10471   0.10557
     Eigenvalues ---    0.10830   0.10901   0.11591   0.11695   0.12065
     Eigenvalues ---    0.12095   0.12185   0.12543   0.12553   0.12686
     Eigenvalues ---    0.12712   0.12809   0.12838   0.13100   0.13156
     Eigenvalues ---    0.13820   0.14003   0.14341   0.14575   0.14754
     Eigenvalues ---    0.16927   0.16960   0.17115   0.17152   0.17589
     Eigenvalues ---    0.17688   0.18583   0.19870   0.20020   0.20268
     Eigenvalues ---    0.20930   0.21058   0.22000   0.22113   0.22182
     Eigenvalues ---    0.22617   0.23180   0.23422   0.24001   0.24031
     Eigenvalues ---    0.24637   0.24785   0.24976   0.25584   0.26247
     Eigenvalues ---    0.26381   0.26600   0.27637   0.27734   0.27982
     Eigenvalues ---    0.28331   0.28359   0.28897   0.29640   0.29933
     Eigenvalues ---    0.30548   0.30656   0.30663   0.30742   0.30782
     Eigenvalues ---    0.30981   0.31229   0.31442   0.31587   0.32384
     Eigenvalues ---    0.32551   0.32600   0.32757   0.32912   0.33449
     Eigenvalues ---    0.33559   0.35108   0.35594   0.35903   0.36919
     Eigenvalues ---    0.37496   0.37662   0.37849   0.38343   0.38631
     Eigenvalues ---    0.38972   0.39242   0.40230   0.40307   0.41218
     Eigenvalues ---    0.42299   0.42341   0.43585   0.44274   0.44851
     Eigenvalues ---    0.45384   0.45638   0.45996   0.48117   0.48412
     Eigenvalues ---    0.48630   0.48963   0.49028   0.49663   0.49778
     Eigenvalues ---    0.50117   0.50893   0.51365   0.52055   0.52484
     Eigenvalues ---    0.53192   0.53979   0.56370   0.58575   0.64491
     Eigenvalues ---    0.67521   0.76665   0.81508   0.82737   0.96863
     Eigenvalues ---    0.97260   0.98752   0.99344   1.01600   1.04439
     Eigenvalues ---    1.07373   1.11125   1.11657   1.12260   1.15471
     Eigenvalues ---    1.18809   1.19295   1.20435   1.22161   1.22589
     Eigenvalues ---    1.22789   1.26177   1.26616   1.26813   1.27148
     Eigenvalues ---    1.27733   1.29292   1.29592   1.45245   1.45597
     Eigenvalues ---    1.45765   1.48151   1.51443   1.51838   1.52163
     Eigenvalues ---    1.52721   1.55779   1.55832   1.57228   1.58609
     Eigenvalues ---    1.58697   1.59374   1.61797   1.64348   1.74864
     Eigenvalues ---    1.85454   1.89085   1.94585   1.95121   1.95534
     Eigenvalues ---    2.06000   2.12063   3.50753
 Eigenvalue     1 is   2.22D-16 Eigenvector:
                          Y11       Y12       Y6        Y10       Y7
   1                    0.17432   0.17432   0.17432   0.17432   0.17432
                          Y5        Y2        Y4        Y8        Y3
   1                    0.17432   0.17432   0.17432   0.17432   0.17432
 Eigenvalue     2 is   3.14D-07 Eigenvector:
                          Y16       X16       X11       Y11       Y15
   1                    0.31900  -0.27133   0.26542  -0.24575   0.23474
                          Y14       X14       Y17       Y13       X6
   1                    0.23289  -0.19246   0.19055   0.18602   0.18488
 Eigenvalue     3 is   2.86D-06 Eigenvector:
                          X9        X10       Y12       X12       Y8
   1                    0.33817   0.29227   0.27240  -0.25263   0.25145
                          Y9        X15       Y10       X17       X8
   1                   -0.24463   0.23206  -0.22318  -0.20906  -0.20775
 Quadratic step=2.858D+01 exceeds max=3.000D-01 adjusted using Lamda=-1.263D-02.
 Angle between NR and scaled steps=  40.51 degrees.
 Angle between quadratic step and forces=  65.39 degrees.
 Linear search not attempted -- first point.
 B after Tr=    -0.000296    0.006650    0.001363
         Rot=    1.000000   -0.000132    0.000014    0.000051 Ang=  -0.02 deg.
 Variable       Old X    -DE/DX   Delta X   Delta X   Delta X     New X
                                 (Linear)    (Quad)   (Total)
    X1      -18.23079  -0.00310   0.00000  -0.00304  -0.00228 -18.23308
    Y1       15.63466   0.00803   0.00000   0.00805   0.01132  15.64598
    Z1       19.92653   0.00240   0.00000   0.00251   0.00748  19.93401
    X2      -15.77039  -0.00154   0.00000  -0.01035  -0.01046 -15.78085
    Y2        8.03314  -0.00070   0.00000  -0.01244  -0.01025   8.02289
    Z2       23.08093  -0.00194   0.00000  -0.01054  -0.00750  23.07343
    X3      -17.27308  -0.00082   0.00000   0.00240   0.00229 -17.27079
    Y3        7.43019  -0.00206   0.00000  -0.02912  -0.02622   7.40397
    Z3       20.97045   0.00350   0.00000  -0.01127  -0.00844  20.96202
    X4      -18.99769   0.00139   0.00000  -0.01043  -0.01075 -19.00844
    Y4        5.41795   0.00200   0.00000  -0.00892  -0.00591   5.41205
    Z4       21.19397   0.00054   0.00000   0.01448   0.01674  21.21070
    X5      -19.28641   0.00080   0.00000  -0.00575  -0.00628 -19.29268
    Y5        4.12314  -0.00005   0.00000  -0.00245  -0.00000   4.12314
    Z5       23.46280   0.00135   0.00000   0.02157   0.02349  23.48628
    X6      -17.83242   0.00008   0.00000   0.00186   0.00135 -17.83107
    Y6        4.79110  -0.00031   0.00000  -0.00478  -0.00304   4.78806
    Z6       25.55940   0.00080   0.00000   0.01526   0.01739  25.57680
    X7      -16.05156  -0.00104   0.00000  -0.00739  -0.00770 -16.05925
    Y7        6.72786  -0.00123   0.00000  -0.00029   0.00133   6.72919
    Z7       25.34718   0.00041   0.00000   0.00045   0.00314  25.35032
    X8      -14.35997  -0.00028   0.00000  -0.01556  -0.01552 -14.37549
    Y8        9.53486   0.00041   0.00000  -0.00679  -0.00471   9.53015
    Z8       22.94965  -0.00016   0.00000  -0.01651  -0.01304  22.93661
    X9      -20.13788  -0.00040   0.00000  -0.01924  -0.01958 -20.15746
    Y9        4.88899   0.00013   0.00000  -0.00960  -0.00604   4.88294
    Z9       19.55353  -0.00004   0.00000   0.01998   0.02207  19.57561
   X10      -20.64895  -0.00023   0.00000  -0.00948  -0.01016 -20.65912
   Y10        2.57746  -0.00014   0.00000   0.00075   0.00329   2.58075
   Z10       23.59600   0.00022   0.00000   0.02757   0.02905  23.62505
   X11      -18.06407   0.00039   0.00000   0.01450   0.01384 -18.05023
   Y11        3.78521  -0.00029   0.00000  -0.00647  -0.00517   3.78004
   Z11       27.34672  -0.00002   0.00000   0.01561   0.01747  27.36420
   X12      -14.87343   0.00008   0.00000  -0.00586  -0.00616 -14.87959
   Y12        7.22573   0.00021   0.00000   0.01260   0.01368   7.23941
   Z12       26.96886   0.00016   0.00000  -0.00356  -0.00070  26.96816
   X13      -17.15877   0.00773   0.00000   0.03954   0.03963 -17.11915
   Y13        8.83153   0.01098   0.00000  -0.06878  -0.06526   8.76627
   Z13       18.58811  -0.00765   0.00000  -0.04583  -0.04263  18.54548
   X14      -15.90189  -0.00157   0.00000   0.07244   0.07276 -15.82913
   Y14       11.01175  -0.01755   0.00000  -0.11837  -0.11487  10.89688
   Z14       18.17485   0.00018   0.00000  -0.05633  -0.05254  18.12232
   X15      -18.26095  -0.00101   0.00000   0.00113   0.00118 -18.25977
   Y15        8.01675   0.00033   0.00000  -0.04664  -0.04260   7.97416
   Z15       17.03583   0.00004   0.00000  -0.02955  -0.02660  17.00923
   X16      -15.92980  -0.00022   0.00000   0.05709   0.05755 -15.87225
   Y16       11.89527   0.00082   0.00000  -0.08837  -0.08438  11.81089
   Z16       16.31197   0.00068   0.00000  -0.04106  -0.03703  16.27494
   X17      -14.72317  -0.00149   0.00000   0.03860   0.03897 -14.68420
   Y17       11.91259   0.00054   0.00000  -0.09490  -0.09189  11.82070
   Z17       19.60268  -0.00053   0.00000  -0.04452  -0.04045  19.56223
   X18       -1.84281  -0.00338   0.00000  -0.01978  -0.02081  -1.86363
   Y18       -3.40652   0.00052   0.00000   0.00259   0.00572  -3.40079
   Z18       14.10769   0.00080   0.00000   0.00749   0.00791  14.11560
   X19      -15.85256   0.00327   0.00000   0.01441   0.01347 -15.83909
   Y19       -2.51797  -0.00081   0.00000   0.00845   0.01301  -2.50496
   Z19       14.10099   0.00100   0.00000   0.01115   0.01141  14.11240
   X20      -13.26427   0.00265   0.00000   0.01077   0.01018 -13.25409
   Y20        2.54509  -0.00298   0.00000  -0.01148  -0.00868   2.53641
   Z20       19.79217  -0.00052   0.00000  -0.00229  -0.00063  19.79154
   X21       -4.41160  -0.00242   0.00000  -0.01098  -0.01268  -4.42427
   Y21       -8.31113   0.00233   0.00000   0.01747   0.01932  -8.29180
   Z21       19.94603  -0.00099   0.00000  -0.01070  -0.01164  19.93439
   X22       -6.42470   0.00170   0.00000  -0.00728  -0.00778  -6.43248
   Y22        1.30617   0.01053   0.00000   0.02149   0.02557   1.33174
   Z22       12.24218  -0.00973   0.00000  -0.00432  -0.00279  12.23939
   X23      -11.31715  -0.00246   0.00000   0.00363   0.00225 -11.31490
   Y23       -7.22041  -0.01030   0.00000  -0.00502  -0.00047  -7.22088
   Z23       12.39317  -0.01008   0.00000  -0.00538  -0.00623  12.38694
   X24       -6.82013   0.00674   0.00000   0.01554   0.01482  -6.80531
   Y24        1.64209   0.00860   0.00000   0.00293   0.00460   1.64669
   Z24       21.57303   0.01002   0.00000   0.00920   0.01080  21.58383
   X25      -10.88762  -0.00718   0.00000  -0.01663  -0.01827 -10.90589
   Y25       -7.30586  -0.00732   0.00000   0.00313   0.00519  -7.30067
   Z25       21.69905   0.01018   0.00000   0.00601   0.00515  21.70420
   X26       -4.59152   0.00822   0.00000  -0.00617  -0.00730  -4.59882
   Y26       -4.89857  -0.00768   0.00000  -0.00508  -0.00114  -4.89972
   Z26       12.09809  -0.01093   0.00000  -0.00870  -0.00876  12.08933
   X27      -13.10665  -0.00821   0.00000  -0.00172  -0.00245 -13.10910
   Y27       -1.01062   0.00817   0.00000   0.01995   0.02478  -0.98584
   Z27       12.03678  -0.01067   0.00000  -0.00705  -0.00631  12.03047
   X28      -12.87740  -0.01169   0.00000  -0.00786  -0.00881 -12.88621
   Y28       -0.47429   0.00305   0.00000  -0.00414  -0.00192  -0.47621
   Z28       21.84872   0.01092   0.00000   0.01110   0.01199  21.86071
   X29       -4.80655   0.01094   0.00000   0.00696   0.00553  -4.80101
   Y29       -5.17774  -0.00184   0.00000   0.01030   0.01167  -5.16607
   Z29       21.92747   0.01082   0.00000   0.00714   0.00701  21.93447
   X30       -5.98140  -0.00052   0.00000   0.01078   0.01058  -5.97082
   Y30        3.53994  -0.00265   0.00000   0.01499   0.01962   3.55956
   Z30       10.00901   0.00338   0.00000   0.00421   0.00635  10.01536
   X31      -11.56951   0.00025   0.00000  -0.01057  -0.01213 -11.58164
   Y31       -9.58381   0.00307   0.00000   0.00198   0.00712  -9.57669
   Z31       10.23526   0.00316   0.00000   0.00021  -0.00127  10.23399
   X32       -5.06509  -0.00235   0.00000   0.00294   0.00232  -5.06277
   Y32        3.22927  -0.00204   0.00000   0.00846   0.00938   3.23865
   Z32       23.74518  -0.00316   0.00000   0.00351   0.00558  23.75076
   X33      -12.62534   0.00232   0.00000  -0.00352  -0.00538 -12.63072
   Y33       -8.81853   0.00184   0.00000  -0.00455  -0.00290  -8.82143
   Z33       23.93316  -0.00325   0.00000  -0.00018  -0.00148  23.93167
   X34       -5.02376  -0.00119   0.00000  -0.01506  -0.01582  -5.03958
   Y34       -1.73317  -0.00068   0.00000   0.00435   0.00873  -1.72444
   Z34       10.56141   0.00322   0.00000   0.01117   0.01194  10.57335
   X35      -12.66084   0.00139   0.00000   0.00860   0.00757 -12.65327
   Y35       -4.28800   0.00011   0.00000   0.00969   0.01483  -4.27317
   Z35       10.62087   0.00343   0.00000   0.01347   0.01335  10.63423
   X36      -10.02422   0.00075   0.00000   0.00738   0.00654 -10.01767
   Y36        1.03859  -0.00150   0.00000  -0.01105  -0.00951   1.02908
   Z36       23.35534  -0.00327   0.00000  -0.00658  -0.00522  23.35011
   X37       -7.65300  -0.00033   0.00000  -0.00628  -0.00791  -7.66090
   Y37       -6.67949   0.00124   0.00000   0.01363   0.01490  -6.66459
   Z37       23.44769  -0.00336   0.00000  -0.01134  -0.01194  23.43574
   X38        0.59544  -0.00444   0.00000   0.00402   0.00324   0.59868
   Y38       -0.03859  -0.00185   0.00000  -0.00483  -0.00285  -0.04144
   Z38       17.53339  -0.00131   0.00000  -0.00210  -0.00073  17.53266
   X39      -18.31256   0.00443   0.00000  -0.00706  -0.00843 -18.32098
   Y39       -5.74846   0.00174   0.00000   0.01267   0.01656  -5.73190
   Z39       17.62246  -0.00139   0.00000  -0.00147  -0.00212  17.62034
   X40      -11.98996   0.00212   0.00000   0.00187   0.00179 -11.98817
   Y40        6.48032  -0.00613   0.00000   0.00573   0.00929   6.48961
   Z40       16.37370   0.00091   0.00000   0.00910   0.01184  16.38553
   X41       -5.68991  -0.00107   0.00000   0.00312   0.00112  -5.68879
   Y41      -12.27369   0.00477   0.00000   0.00501   0.00789 -12.26580
   Z41       16.52337   0.00130   0.00000   0.00073  -0.00129  16.52208
   X42       -3.35905  -0.00198   0.00000  -0.01265  -0.01320  -3.37224
   Y42        1.40664  -0.00275   0.00000  -0.00217   0.00111   1.40774
   Z42       14.12198   0.00135   0.00000   0.01187   0.01351  14.13549
   X43      -14.35604   0.00241   0.00000   0.01039   0.00895 -14.34709
   Y43       -7.33826   0.00251   0.00000   0.01272   0.01708  -7.32117
   Z43       14.25060   0.00109   0.00000   0.01062   0.00966  14.26026
   X44       -8.48271  -0.00032   0.00000   0.00497   0.00456  -8.47815
   Y44        4.14785  -0.00363   0.00000  -0.01245  -0.01011   4.13774
   Z44       19.70191  -0.00065   0.00000  -0.00262  -0.00040  19.70151
   X45       -9.20822   0.00086   0.00000  -0.00630  -0.00816  -9.21638
   Y45       -9.89108   0.00333   0.00000   0.01846   0.02082  -9.87027
   Z45       19.89946  -0.00133   0.00000  -0.01121  -0.01270  19.88676
   X46       -3.02411  -0.00270   0.00000  -0.00520  -0.00645  -3.03056
   Y46       -6.67786   0.00293   0.00000   0.00979   0.01414  -6.66372
   Z46        9.92919   0.00316   0.00000  -0.00709  -0.00756   9.92162
   X47      -14.76322   0.00285   0.00000  -0.00602  -0.00654 -14.76976
   Y47        0.52307  -0.00245   0.00000   0.00199   0.00758   0.53065
   Z47        9.78235   0.00324   0.00000  -0.00317  -0.00207   9.78028
   X48      -15.18571   0.00421   0.00000   0.00223   0.00124 -15.18447
   Y48       -0.31258  -0.00048   0.00000   0.00602   0.00788  -0.30469
   Z48       24.07342  -0.00350   0.00000   0.00728   0.00814  24.08156
   X49       -2.47195  -0.00384   0.00000  -0.00316  -0.00467  -2.47663
   Y49       -5.40626   0.00041   0.00000  -0.00181  -0.00126  -5.40751
   Z49       24.11963  -0.00315   0.00000   0.00389   0.00377  24.12340
   X50       -2.35024   0.01448   0.00000   0.00593   0.00507  -2.34517
   Y50       -1.01519   0.00485   0.00000   0.00599   0.00849  -1.00671
   Z50       16.70199   0.00307   0.00000   0.01214   0.01317  16.71517
   X51      -15.36543  -0.01469   0.00000  -0.00955  -0.01080 -15.37623
   Y51       -4.79886  -0.00388   0.00000   0.00445   0.00826  -4.79060
   Z51       16.76914   0.00330   0.00000   0.01347   0.01315  16.78229
   X52      -11.09219  -0.00575   0.00000  -0.00166  -0.00206 -11.09426
   Y52        3.50953   0.01586   0.00000   0.01349   0.01678   3.52631
   Z52       17.08942  -0.00329   0.00000  -0.00673  -0.00474  17.08468
   X53       -6.60421   0.00477   0.00000  -0.00176  -0.00348  -6.60769
   Y53       -9.29849  -0.01441   0.00000  -0.00242   0.00035  -9.29814
   Z53       17.31706  -0.00286   0.00000  -0.01295  -0.01422  17.30284
   X54       -7.95844  -0.00065   0.00000  -0.00294  -0.00415  -7.96259
   Y54       -5.88534   0.00148   0.00000  -0.00480  -0.00035  -5.88569
   Z54       11.47709   0.00206   0.00000  -0.00874  -0.00915  11.46795
   X55       -9.72826   0.00073   0.00000  -0.00393  -0.00455  -9.73281
   Y55       -0.11938  -0.00152   0.00000   0.02207   0.02673  -0.09265
   Z55       11.37263   0.00198   0.00000  -0.00711  -0.00604  11.36659
   X56      -11.65388   0.00173   0.00000  -0.01127  -0.01257 -11.66645
   Y56       -3.77935  -0.00017   0.00000  -0.00275  -0.00083  -3.78019
   Z56       22.50518  -0.00209   0.00000   0.01000   0.01004  22.51522
   X57       -5.99326  -0.00133   0.00000   0.01135   0.01024  -5.98302
   Y57       -1.87430  -0.00054   0.00000   0.00731   0.00864  -1.86565
   Z57       22.52276  -0.00208   0.00000   0.00948   0.01019  22.53295
   X58       -8.21958   0.00032   0.00000  -0.00363  -0.00403  -8.22361
   Y58        2.98408  -0.00247   0.00000   0.01694   0.02054   3.00462
   Z58       14.80364   0.00116   0.00000  -0.00403  -0.00210  14.80153
   X59       -9.46430   0.00036   0.00000   0.00142  -0.00020  -9.46450
   Y59       -8.85153   0.00219   0.00000  -0.00537  -0.00169  -8.85321
   Z59       14.97524   0.00142   0.00000  -0.00799  -0.00922  14.96602
   X60       -4.38164  -0.00138   0.00000   0.01304   0.01233  -4.36931
   Y60        1.06377  -0.00166   0.00000   0.00512   0.00720   1.07098
   Z60       19.04200  -0.00153   0.00000   0.00954   0.01106  19.05306
   X61      -13.31124   0.00165   0.00000  -0.01506  -0.01659 -13.32783
   Y61       -6.83262   0.00138   0.00000   0.00301   0.00598  -6.82664
   Z61       19.14314  -0.00140   0.00000   0.00843   0.00763  19.15077
   X62       -4.85674  -0.00129   0.00000  -0.00339  -0.00485  -4.86160
   Y62       -7.38948   0.00201   0.00000  -0.00262   0.00062  -7.38886
   Z62       14.86964   0.00074   0.00000  -0.01132  -0.01204  14.85760
   X63      -12.86156   0.00112   0.00000  -0.00165  -0.00220 -12.86376
   Y63        1.49963  -0.00255   0.00000   0.01441   0.01850   1.51813
   Z63       14.74484   0.00050   0.00000  -0.00753  -0.00613  14.73872
   X64      -14.78010   0.00233   0.00000  -0.00831  -0.00936 -14.78946
   Y64       -2.22606  -0.00023   0.00000   0.00130   0.00442  -2.22164
   Z64       19.16254  -0.00096   0.00000   0.01235   0.01272  19.17526
   X65       -2.93632  -0.00237   0.00000   0.00556   0.00437  -2.93195
   Y65       -3.54239  -0.00025   0.00000   0.00626   0.00817  -3.53423
   Z65       19.16143  -0.00081   0.00000   0.00932   0.00967  19.17110
   X66       -6.33639  -0.02679   0.00000  -0.05051  -0.05145  -6.38784
   Y66       -2.19378  -0.00489   0.00000  -0.00073   0.00259  -2.19119
   Z66       15.14001   0.01712   0.00000   0.02843   0.02904  15.16905
   X67      -11.36610   0.02721   0.00000   0.04526   0.04416 -11.32194
   Y67       -3.70682   0.00562   0.00000   0.01542   0.01922  -3.68759
   Z67       15.18171   0.01706   0.00000   0.02953   0.02961  15.21132
   X68       -9.66076   0.01142   0.00000   0.02138   0.02052  -9.64023
   Y68       -0.39846  -0.02577   0.00000  -0.03923  -0.03653  -0.43500
   Z68       18.78875  -0.01723   0.00000  -0.02673  -0.02575  18.76300
   X69       -8.00554  -0.01125   0.00000  -0.02387  -0.02523  -8.03077
   Y69       -5.38577   0.02464   0.00000   0.04649   0.04901  -5.33676
   Z69       18.85134  -0.01747   0.00000  -0.02902  -0.02929  18.82205
   X70       -6.07249   0.00019   0.00000  -0.00193  -0.00371  -6.07620
   Y70      -11.59029  -0.00097   0.00000  -0.00457  -0.00010 -11.59040
   Z70       10.67184  -0.00064   0.00000  -0.01012  -0.01198  10.65986
   X71       -0.21800   0.00076   0.00000   0.01115   0.01022  -0.20778
   Y71        0.08288   0.00008   0.00000   0.00360   0.00413   0.08701
   Z71       23.29894   0.00062   0.00000   0.00925   0.01063  23.30957
   X72      -17.54347  -0.00094   0.00000  -0.01275  -0.01424 -17.55771
   Y72       -5.33762  -0.00034   0.00000   0.00160   0.00387  -5.33375
   Z72       23.48331   0.00056   0.00000   0.00995   0.00942  23.49274
   X73       -8.84607  -0.00044   0.00000  -0.00244  -0.00350  -8.84957
   Y73       -2.91518   0.00035   0.00000   0.00568   0.00876  -2.90641
   Z73       16.98796   0.00016   0.00000   0.00082   0.00117  16.98914
         Item               Value     Threshold  Converged?
 Maximum Force            0.027212     0.000450     NO 
 RMS     Force            0.006162     0.000300     NO 
 Maximum Displacement     0.114868     0.001800     NO 
 RMS     Displacement     0.020153     0.001200     NO 
 Predicted change in Energy=-6.212860D-03
 GradGradGradGradGradGradGradGradGradGradGradGradGradGradGradGradGradGrad

 Unable to Open any file for archive entry.
 1\1\GINC-X11P1N2\Force\RwB97XD\def2SVP\C8H8Cl1K3O40V1W12(1-)\MAYUMIAO\
 02-Jun-2024\0\\# def2svp wb97xd scrf=(smd,solvent=acetonitrile) g09def
 ault scf=(xqc,maxcycle=64) force guess=read nosymm\\Title Card\\-1,1\C
 l,-9.64732071,8.27350738,10.54466334\C,-8.34532952,4.25095349,12.21390
 235\C,-9.14051841,3.93188538,11.09708671\C,-10.05314331,2.86705793,11.
 21536382\C,-10.20592611,2.18187105,12.41597894\C,-9.43651037,2.5353413
 7,13.52545353\C,-8.49411837,3.56022971,13.41314856\H,-7.59896777,5.045
 62891,12.1444326\H,-10.65650767,2.58713954,10.34728464\H,-10.92695412,
 1.36393339,12.48646627\H,-9.55909401,2.00304544,14.47126357\H,-7.87068
 012,3.82369351,14.2713071\C,-9.08003066,4.67344334,9.83640405\C,-8.414
 91742,5.82716752,9.61771784\H,-9.66327656,4.24228307,9.01497232\H,-8.4
 2968882,6.29470787,8.63192418\H,-7.79116647,6.30387117,10.37329174\O,-
 0.97517421,-1.80265043,7.46546674\O,-8.38881503,-1.33245051,7.46192005
 \O,-7.01915033,1.34680204,10.47356498\O,-2.33451747,-4.3980597,10.5549
 8519\W,-3.39980581,0.69119516,6.47828335\W,-5.98877768,-3.82087582,6.5
 5818361\W,-3.6090558,0.8689571,11.41595473\W,-5.76148013,-3.86609367,1
 1.48264192\W,-2.42972588,-2.5922129,6.40203517\W,-6.93573936,-0.534796
 56,6.36958926\W,-6.81442673,-0.25098277,11.56184618\W,-2.54351412,-2.7
 3994405,11.60351482\O,-3.1652199,1.8732568,5.29654075\O,-6.12232105,-5
 .07153445,5.41626659\O,-2.68033154,1.7088561,12.56540627\O,-6.68104406
 ,-4.66656557,12.66488036\O,-2.65845803,-0.91715657,5.5888575\O,-6.6998
 2907,-2.26911291,5.62032301\O,-5.30458815,0.54959987,12.35911177\O,-4.
 04979237,-3.5346325,12.40798223\O,0.31509404,-0.02042021,9.27827157\O,
 -9.69058722,-3.04195455,9.32540456\O,-6.34481283,3.42923598,8.66458853
 \O,-3.01096951,-6.4949579,8.74379339\O,-1.77753077,0.74435922,7.473031
 38\O,-7.59688757,-3.88323864,7.54109294\O,-4.48885789,2.19494887,10.42
 580327\O,-4.87278035,-5.23413518,10.53033864\O,-1.60029182,-3.53377336
 ,5.25429856\O,-7.81236068,0.27679711,5.17659787\O,-8.03593046,-0.16540
 796,12.73910472\O,-1.30810076,-2.86086706,12.7635603\W,-1.24369608,-0.
 53721604,8.83831417\W,-8.13103642,-2.5394468,8.8738482\W,-5.86973592,1
 .85716315,9.04333318\W,-3.49479937,-4.92054914,9.16379087\O,-4.2114261
 ,-3.11438889,6.07341665\O,-5.14797435,-0.06317253,6.018137\O,-6.166966
 71,-1.99994711,11.9092268\O,-3.17149908,-0.9918348,11.91853335\O,-4.34
 961579,1.57910906,7.83374777\O,-5.00829366,-4.68402773,7.92455584\O,-2
 .31866564,0.56292477,10.07659074\O,-7.04400709,-3.61566768,10.13011126
 \O,-2.57007817,-3.91034216,7.8686761\O,-6.80604557,0.79357087,7.802635
 69\O,-7.82128975,-1.17798011,10.14037925\O,-1.55383101,-1.87455275,10.
 13979401\O,-3.35307353,-1.16089825,8.01174889\O,-6.01468125,-1.9615621
 7,8.03381573\O,-5.112252,-0.21085647,9.94257882\O,-4.23634793,-2.85002
 551,9.97569944\K,-3.21342547,-6.13331966,5.6472959\K,-0.11536236,0.043
 85641,12.32926845\K,-9.28360231,-2.8245463,12.42683469\V,-4.68113974,-
 1.54264425,8.98964347\\Version=ES64L-G16RevC.01\HF=-7327.701831\RMSD=5
 .289e-09\RMSF=6.162e-03\Dipole=10.0327585,-21.915031,2.450988\Quadrupo
 le=-68.8563466,43.9566887,24.899658,332.3909555,334.5618607,-354.90336
 14\PG=C01 [X(C8H8Cl1K3O40V1W12)]\\@
 The archive entry for this job was punched.


 LOGIC IS A SYSTEMATIC METHOD OF COMING TO THE
 WRONG CONCLUSION WITH CONFIDENCE.
 Job cpu time:       0 days  8 hours 40 minutes  7.0 seconds.
 Elapsed time:       0 days  0 hours  9 minutes 50.3 seconds.
 File lengths (MBytes):  RWF=   1256 Int=      0 D2E=      0 Chk=    249 Scr=      1
 Normal termination of Gaussian 16 at Sun Jun  2 19:34:11 2024.
