 Entering Gaussian System, Link 0=g16
 Input=JOBS/53_B.gjf
 Output=JOBS/53_B.log
 Initial command:
 /data/app/gaussian/C01-avx2//g16/l1.exe "/tmp/Gau-680036.inp" -scrdir="/tmp/"
 Entering Link 1 = /data/app/gaussian/C01-avx2//g16/l1.exe PID=    680037.
  
 Copyright (c) 1988-2019, Gaussian, Inc.  All Rights Reserved.
  
 This is part of the Gaussian(R) 16 program.  It is based on
 the Gaussian(R) 09 system (copyright 2009, Gaussian, Inc.),
 the Gaussian(R) 03 system (copyright 2003, Gaussian, Inc.),
 the Gaussian(R) 98 system (copyright 1998, Gaussian, Inc.),
 the Gaussian(R) 94 system (copyright 1995, Gaussian, Inc.),
 the Gaussian 92(TM) system (copyright 1992, Gaussian, Inc.),
 the Gaussian 90(TM) system (copyright 1990, Gaussian, Inc.),
 the Gaussian 88(TM) system (copyright 1988, Gaussian, Inc.),
 the Gaussian 86(TM) system (copyright 1986, Carnegie Mellon
 University), and the Gaussian 82(TM) system (copyright 1983,
 Carnegie Mellon University). Gaussian is a federally registered
 trademark of Gaussian, Inc.
  
 This software contains proprietary and confidential information,
 including trade secrets, belonging to Gaussian, Inc.
  
 This software is provided under written license and may be
 used, copied, transmitted, or stored only in accord with that
 written license.
  
 The following legend is applicable only to US Government
 contracts under FAR:
  
                    RESTRICTED RIGHTS LEGEND
  
 Use, reproduction and disclosure by the US Government is
 subject to restrictions as set forth in subparagraphs (a)
 and (c) of the Commercial Computer Software - Restricted
 Rights clause in FAR 52.227-19.
  
 Gaussian, Inc.
 340 Quinnipiac St., Bldg. 40, Wallingford CT 06492
  
  
 ---------------------------------------------------------------
 Warning -- This program may not be used in any manner that
 competes with the business of Gaussian, Inc. or will provide
 assistance to any competitor of Gaussian, Inc.  The licensee
 of this program is prohibited from giving any competitor of
 Gaussian, Inc. access to this program.  By using this program,
 the user acknowledges that Gaussian, Inc. is engaged in the
 business of creating and licensing software in the field of
 computational chemistry and represents and warrants to the
 licensee that it is not a competitor of Gaussian, Inc. and that
 it will not use this program in any manner prohibited above.
 ---------------------------------------------------------------
  

 Cite this work as:
 Gaussian 16, Revision C.01,
 M. J. Frisch, G. W. Trucks, H. B. Schlegel, G. E. Scuseria, 
 M. A. Robb, J. R. Cheeseman, G. Scalmani, V. Barone, 
 G. A. Petersson, H. Nakatsuji, X. Li, M. Caricato, A. V. Marenich, 
 J. Bloino, B. G. Janesko, R. Gomperts, B. Mennucci, H. P. Hratchian, 
 J. V. Ortiz, A. F. Izmaylov, J. L. Sonnenberg, D. Williams-Young, 
 F. Ding, F. Lipparini, F. Egidi, J. Goings, B. Peng, A. Petrone, 
 T. Henderson, D. Ranasinghe, V. G. Zakrzewski, J. Gao, N. Rega, 
 G. Zheng, W. Liang, M. Hada, M. Ehara, K. Toyota, R. Fukuda, 
 J. Hasegawa, M. Ishida, T. Nakajima, Y. Honda, O. Kitao, H. Nakai, 
 T. Vreven, K. Throssell, J. A. Montgomery, Jr., J. E. Peralta, 
 F. Ogliaro, M. J. Bearpark, J. J. Heyd, E. N. Brothers, K. N. Kudin, 
 V. N. Staroverov, T. A. Keith, R. Kobayashi, J. Normand, 
 K. Raghavachari, A. P. Rendell, J. C. Burant, S. S. Iyengar, 
 J. Tomasi, M. Cossi, J. M. Millam, M. Klene, C. Adamo, R. Cammi, 
 J. W. Ochterski, R. L. Martin, K. Morokuma, O. Farkas, 
 J. B. Foresman, and D. J. Fox, Gaussian, Inc., Wallingford CT, 2019.
 
 ******************************************
 Gaussian 16:  ES64L-G16RevC.01  3-Jul-2019
                 2-Jun-2024 
 ******************************************
 %chk=b.chk
 %nprocshared=56
 Will use up to   56 processors via shared memory.
 %mem=96gb
 ----------------------------------------------------------------------
 # def2svp wb97xd scrf=(smd,solvent=acetonitrile) g09default scf=(xqc,m
 axcycle=64) force guess=read nosymm
 ----------------------------------------------------------------------
 1/10=7,30=1,38=1,158=3,167=1/1,3;
 2/12=2,15=1,17=6,18=5,40=1/2;
 3/5=43,7=101,11=2,25=1,27=10,30=1,70=32201,71=1,72=2,74=-58,75=-4,116=-2,158=3/1,2,3;
 4/5=1,60=-1/1;
 5/5=2,7=64,8=3,13=1,38=6,53=2,87=10/2,8;
 6/7=2,8=2,9=2,10=2,28=1,87=10/1;
 7/29=1,30=1,87=10/1,2,3,16;
 1/10=7,30=1,158=3,167=1/3;
 99//99;
 Using 2006 physical constants.
 ----------
 Title Card
 ----------
 Symbolic Z-matrix:
 Charge = -1 Multiplicity = 1
 17                   -9.64732   8.27351   10.54466 
 6                    -8.34533   4.25095   12.2139 
 6                    -9.14052   3.93189   11.09709 
 6                    -10.05314   2.86706   11.21536 
 6                    -10.20593   2.18187   12.41598 
 6                    -9.43651   2.53534   13.52545 
 6                    -8.49412   3.56023   13.41315 
 1                    -7.59897   5.04563   12.14443 
 1                    -10.65651   2.58714   10.34728 
 1                    -10.92695   1.36393   12.48647 
 1                    -9.55909   2.00305   14.47126 
 1                    -7.87068   3.82369   14.27131 
 6                    -9.08003   4.67344   9.8364 
 6                    -8.41492   5.82717   9.61772 
 1                    -9.66328   4.24228   9.01497 
 1                    -8.42969   6.29471   8.63192 
 1                    -7.79117   6.30387   10.37329 
 8                    -0.97517  -1.80265   7.46547 
 8                    -8.38882  -1.33245   7.46192 
 8                    -7.01915   1.3468    10.47356 
 8                    -2.33452  -4.39806   10.55499 
 74                   -3.39981   0.6912    6.47828 
 74                   -5.98878  -3.82088   6.55818 
 74                   -3.60906   0.86896   11.41595 
 74                   -5.76148  -3.86609   11.48264 
 74                   -2.42973  -2.59221   6.40204 
 74                   -6.93574  -0.5348    6.36959 
 74                   -6.81443  -0.25098   11.56185 
 74                   -2.54351  -2.73994   11.60351 
 8                    -3.16522   1.87326   5.29654 
 8                    -6.12232  -5.07153   5.41627 
 8                    -2.68033   1.70886   12.56541 
 8                    -6.68104  -4.66657   12.66488 
 8                    -2.65846  -0.91716   5.58886 
 8                    -6.69983  -2.26911   5.62032 
 8                    -5.30459   0.5496    12.35911 
 8                    -4.04979  -3.53463   12.40798 
 8                     0.31509  -0.02042   9.27827 
 8                    -9.69059  -3.04195   9.3254 
 8                    -6.34481   3.42924   8.66459 
 8                    -3.01097  -6.49496   8.74379 
 8                    -1.77753   0.74436   7.47303 
 8                    -7.59689  -3.88324   7.54109 
 8                    -4.48886   2.19495   10.4258 
 8                    -4.87278  -5.23414   10.53034 
 8                    -1.60029  -3.53377   5.2543 
 8                    -7.81236   0.2768    5.1766 
 8                    -8.03593  -0.16541   12.7391 
 8                    -1.3081   -2.86087   12.76356 
 74                   -1.2437   -0.53722   8.83831 
 74                   -8.13104  -2.53945   8.87385 
 74                   -5.86974   1.85716   9.04333 
 74                   -3.4948   -4.92055   9.16379 
 8                    -4.21143  -3.11439   6.07342 
 8                    -5.14797  -0.06317   6.01814 
 8                    -6.16697  -1.99995   11.90923 
 8                    -3.1715   -0.99183   11.91853 
 8                    -4.34962   1.57911   7.83375 
 8                    -5.00829  -4.68403   7.92456 
 8                    -2.31867   0.56292   10.07659 
 8                    -7.04401  -3.61567   10.13011 
 8                    -2.57008  -3.91034   7.86868 
 8                    -6.80605   0.79357   7.80264 
 8                    -7.82129  -1.17798   10.14038 
 8                    -1.55383  -1.87455   10.13979 
 8                    -3.35307  -1.1609    8.01175 
 8                    -6.01468  -1.96156   8.03382 
 8                    -5.11225  -0.21086   9.94258 
 8                    -4.23635  -2.85003   9.9757 
 19                   -3.21343  -6.13332   5.6473 
 19                   -0.11536   0.04386   12.32927 
 19                   -9.2836   -2.82455   12.42683 
 23                   -4.68114  -1.54264   8.98964 
 

 GradGradGradGradGradGradGradGradGradGradGradGradGradGradGradGradGradGrad
 Berny optimization.
 Initialization pass.
 Trust Radius=3.00D-01 FncErr=1.00D-07 GrdErr=1.00D-07 EigMax=2.50D+02 EigMin=1.00D-04
 Number of steps in this run=      2 maximum allowed number of steps=      2.
 GradGradGradGradGradGradGradGradGradGradGradGradGradGradGradGradGradGrad

 Symmetry turned off by external request.
 Stoichiometry    C8H8ClK3O40VW12(1-)
 Framework group  C1[X(C8H8ClK3O40VW12)]
 Deg. of freedom   213
 Full point group                 C1      NOp   1
                          Input orientation:                          
 ---------------------------------------------------------------------
 Center     Atomic      Atomic             Coordinates (Angstroms)
 Number     Number       Type             X           Y           Z
 ---------------------------------------------------------------------
      1         17           0       -9.647321    8.273507   10.544663
      2          6           0       -8.345330    4.250953   12.213902
      3          6           0       -9.140518    3.931885   11.097087
      4          6           0      -10.053143    2.867058   11.215364
      5          6           0      -10.205926    2.181871   12.415979
      6          6           0       -9.436510    2.535341   13.525454
      7          6           0       -8.494118    3.560230   13.413149
      8          1           0       -7.598968    5.045629   12.144433
      9          1           0      -10.656508    2.587140   10.347285
     10          1           0      -10.926954    1.363933   12.486466
     11          1           0       -9.559094    2.003045   14.471264
     12          1           0       -7.870680    3.823694   14.271307
     13          6           0       -9.080031    4.673443    9.836404
     14          6           0       -8.414917    5.827168    9.617718
     15          1           0       -9.663277    4.242283    9.014972
     16          1           0       -8.429689    6.294708    8.631924
     17          1           0       -7.791166    6.303871   10.373292
     18          8           0       -0.975174   -1.802650    7.465467
     19          8           0       -8.388815   -1.332451    7.461920
     20          8           0       -7.019150    1.346802   10.473565
     21          8           0       -2.334517   -4.398060   10.554985
     22         74           0       -3.399806    0.691195    6.478283
     23         74           0       -5.988778   -3.820876    6.558184
     24         74           0       -3.609056    0.868957   11.415955
     25         74           0       -5.761480   -3.866094   11.482642
     26         74           0       -2.429726   -2.592213    6.402035
     27         74           0       -6.935739   -0.534797    6.369589
     28         74           0       -6.814427   -0.250983   11.561846
     29         74           0       -2.543514   -2.739944   11.603515
     30          8           0       -3.165220    1.873257    5.296541
     31          8           0       -6.122321   -5.071534    5.416267
     32          8           0       -2.680332    1.708856   12.565406
     33          8           0       -6.681044   -4.666566   12.664880
     34          8           0       -2.658458   -0.917157    5.588858
     35          8           0       -6.699829   -2.269113    5.620323
     36          8           0       -5.304588    0.549600   12.359112
     37          8           0       -4.049792   -3.534632   12.407982
     38          8           0        0.315094   -0.020420    9.278272
     39          8           0       -9.690587   -3.041955    9.325405
     40          8           0       -6.344813    3.429236    8.664589
     41          8           0       -3.010970   -6.494958    8.743793
     42          8           0       -1.777531    0.744359    7.473031
     43          8           0       -7.596888   -3.883239    7.541093
     44          8           0       -4.488858    2.194949   10.425803
     45          8           0       -4.872780   -5.234135   10.530339
     46          8           0       -1.600292   -3.533773    5.254299
     47          8           0       -7.812361    0.276797    5.176598
     48          8           0       -8.035930   -0.165408   12.739105
     49          8           0       -1.308101   -2.860867   12.763560
     50         74           0       -1.243696   -0.537216    8.838314
     51         74           0       -8.131036   -2.539447    8.873848
     52         74           0       -5.869736    1.857163    9.043333
     53         74           0       -3.494799   -4.920549    9.163791
     54          8           0       -4.211426   -3.114389    6.073417
     55          8           0       -5.147974   -0.063173    6.018137
     56          8           0       -6.166967   -1.999947   11.909227
     57          8           0       -3.171499   -0.991835   11.918533
     58          8           0       -4.349616    1.579109    7.833748
     59          8           0       -5.008294   -4.684028    7.924556
     60          8           0       -2.318666    0.562925   10.076591
     61          8           0       -7.044007   -3.615668   10.130111
     62          8           0       -2.570078   -3.910342    7.868676
     63          8           0       -6.806046    0.793571    7.802636
     64          8           0       -7.821290   -1.177980   10.140379
     65          8           0       -1.553831   -1.874553   10.139794
     66          8           0       -3.353074   -1.160898    8.011749
     67          8           0       -6.014681   -1.961562    8.033816
     68          8           0       -5.112252   -0.210856    9.942579
     69          8           0       -4.236348   -2.850026    9.975699
     70         19           0       -3.213425   -6.133320    5.647296
     71         19           0       -0.115362    0.043856   12.329268
     72         19           0       -9.283602   -2.824546   12.426835
     73         23           0       -4.681140   -1.542644    8.989643
 ---------------------------------------------------------------------
 Rotational constants (GHZ):           0.0172149           0.0132210           0.0129978
 Standard basis: def2SVP (5D, 7F)
  1217 basis functions,  2313 primitive gaussians,  1337 cartesian basis functions
   321 alpha electrons      321 beta electrons
       nuclear repulsion energy     20976.8969520085 Hartrees.
 NAtoms=   73 NActive=   73 NUniq=   73 SFac= 1.00D+00 NAtFMM=   60 NAOKFM=T Big=T
 Integral buffers will be    131072 words long.
 Raffenetti 2 integral format.
 Two-electron integral symmetry is turned off.
 Nuclear repulsion after empirical dispersion term =    20976.6205261509 Hartrees.
 Force PCM accuracy= 1.00D-10.
 ------------------------------------------------------------------------------
 Polarizable Continuum Model (PCM)
 =================================
 Model                : PCM (using non-symmetric T matrix).
 Atomic radii         : SMD-Coulomb.
 Polarization charges : Total charges.
 Charge compensation  : None.
 Solution method      : On-the-fly selection.
 Cavity type          : VdW (van der Waals Surface) (Alpha=1.000).
 Cavity algorithm     : GePol (No added spheres)
                        Default sphere list used, NSphG=   73.
                        Lebedev-Laikov grids with approx.  5.0 points / Ang**2.
                        Smoothing algorithm: York/Karplus (Gamma=1.0000).
                        Polarization charges: spherical gaussians, with
                                              point-specific exponents (IZeta= 3).
                        Self-potential: point-specific (ISelfS= 7).
                        Self-field    : sphere-specific E.n sum rule (ISelfD= 2).
 1st derivatives      : Analytical E(r).r(x)/FMM algorithm (CHGder, D1EAlg=3).
                        Cavity 1st derivative terms included.
 Solvent              : Acetonitrile, Eps=  35.688000 Eps(inf)=   1.806874
 ------------------------------------------------------------------------------
 ------------------------------------------------------------------------------
 Atomic radii for non-electrostatic terms: SMD-CDS.
 ------------------------------------------------------------------------------
 Nuclear repulsion after PCM non-electrostatic terms =    20976.6148256598 Hartrees.
 One-electron integrals computed using PRISM.
   1 Symmetry operations used in ECPInt.
 ECPInt:  NShTT=  127765 NPrTT=  468030 LenC2=   96524 LenP2D=  220885.
 LDataN:  DoStor=T MaxTD1= 8 Len=  415
 NBasis=  1217 RedAO= T EigKep=  1.38D-04  NBF=  1217
 NBsUse=  1217 1.00D-06 EigRej= -1.00D+00 NBFU=  1217
 Defaulting to unpruned grid for atomic number  74.
 Defaulting to unpruned grid for atomic number  74.
 Defaulting to unpruned grid for atomic number  74.
 Defaulting to unpruned grid for atomic number  74.
 Defaulting to unpruned grid for atomic number  74.
 Defaulting to unpruned grid for atomic number  74.
 Defaulting to unpruned grid for atomic number  74.
 Defaulting to unpruned grid for atomic number  74.
 Initial guess from the checkpoint file:  "b.chk"
 B after Tr=     0.000980   -0.000695    0.000195
         Rot=    1.000000   -0.000008    0.000011    0.000030 Ang=  -0.00 deg.
 Initial guess <Sx>= 0.0000 <Sy>= 0.0000 <Sz>= 0.0000 <S**2>= 1.0215 S= 0.6276
 Requested convergence on RMS density matrix=1.00D-08 within  64 cycles.
 Requested convergence on MAX density matrix=1.00D-06.
 Requested convergence on             energy=1.00D-06.
 No special actions if energy rises.
 Defaulting to unpruned grid for atomic number  74.
 Defaulting to unpruned grid for atomic number  74.
 Defaulting to unpruned grid for atomic number  74.
 Defaulting to unpruned grid for atomic number  74.
 Defaulting to unpruned grid for atomic number  74.
 Defaulting to unpruned grid for atomic number  74.
 Defaulting to unpruned grid for atomic number  74.
 Defaulting to unpruned grid for atomic number  74.
 Defaulting to unpruned grid for atomic number  74.
 Defaulting to unpruned grid for atomic number  74.
 Defaulting to unpruned grid for atomic number  74.
 Defaulting to unpruned grid for atomic number  74.
 Defaulting to unpruned grid for atomic number  74.
 Defaulting to unpruned grid for atomic number  74.
 Defaulting to unpruned grid for atomic number  74.
 Defaulting to unpruned grid for atomic number  74.
 Defaulting to unpruned grid for atomic number  74.
 Defaulting to unpruned grid for atomic number  74.
 Defaulting to unpruned grid for atomic number  74.
 Defaulting to unpruned grid for atomic number  74.
 Defaulting to unpruned grid for atomic number  74.
 Defaulting to unpruned grid for atomic number  74.
 Defaulting to unpruned grid for atomic number  74.
 Defaulting to unpruned grid for atomic number  74.
 Defaulting to unpruned grid for atomic number  74.
 Defaulting to unpruned grid for atomic number  74.
 Defaulting to unpruned grid for atomic number  74.
 Defaulting to unpruned grid for atomic number  74.
 Defaulting to unpruned grid for atomic number  74.
 Defaulting to unpruned grid for atomic number  74.
 Defaulting to unpruned grid for atomic number  74.
 Defaulting to unpruned grid for atomic number  74.
 Defaulting to unpruned grid for atomic number  74.
 Defaulting to unpruned grid for atomic number  74.
 Defaulting to unpruned grid for atomic number  74.
 Defaulting to unpruned grid for atomic number  74.
 Defaulting to unpruned grid for atomic number  74.
 Defaulting to unpruned grid for atomic number  74.
 Defaulting to unpruned grid for atomic number  74.
 Defaulting to unpruned grid for atomic number  74.
 Defaulting to unpruned grid for atomic number  74.
 Defaulting to unpruned grid for atomic number  74.
 Defaulting to unpruned grid for atomic number  74.
 Defaulting to unpruned grid for atomic number  74.
 Defaulting to unpruned grid for atomic number  74.
 Defaulting to unpruned grid for atomic number  74.
 Defaulting to unpruned grid for atomic number  74.
 Defaulting to unpruned grid for atomic number  74.
 Defaulting to unpruned grid for atomic number  74.
 Defaulting to unpruned grid for atomic number  74.
 Defaulting to unpruned grid for atomic number  74.
 Defaulting to unpruned grid for atomic number  74.
 Defaulting to unpruned grid for atomic number  74.
 Defaulting to unpruned grid for atomic number  74.
 Defaulting to unpruned grid for atomic number  74.
 Defaulting to unpruned grid for atomic number  74.
 Inv3:  Mode=1 IEnd=    87318075.
 Iteration    1 A*A^-1 deviation from unit magnitude is 3.44D-15 for   1468.
 Iteration    1 A*A^-1 deviation from orthogonality  is 3.11D-15 for    577    198.
 Iteration    1 A^-1*A deviation from unit magnitude is 3.77D-15 for   2034.
 Iteration    1 A^-1*A deviation from orthogonality  is 4.67D-09 for    813    736.
 Iteration    2 A*A^-1 deviation from unit magnitude is 4.88D-15 for   3469.
 Iteration    2 A*A^-1 deviation from orthogonality  is 5.08D-15 for    920     60.
 Iteration    2 A^-1*A deviation from unit magnitude is 1.55D-15 for   3062.
 Iteration    2 A^-1*A deviation from orthogonality  is 5.90D-16 for   3193   2936.
 Restarting incremental Fock formation.
 Error on total polarization charges =  0.01568
 SCF Done:  E(UwB97XD) =  -7327.70184269     A.U. after   33 cycles
            NFock= 33  Conv=0.18D-08     -V/T= 2.0831
 <Sx>= 0.0000 <Sy>= 0.0000 <Sz>= 0.0000 <S**2>= 1.0216 S= 0.6277
 <L.S>=  0.00000000000    
 SMD-CDS (non-electrostatic) energy       (kcal/mol) =      -3.58
 (included in total energy above)
 Annihilation of the first spin contaminant:
 S**2 before annihilation     1.0216,   after     0.1732
 QCSCF skips out because SCF is already converged.

 **********************************************************************

            Population analysis using the SCF Density.

 **********************************************************************

 Alpha  occ. eigenvalues -- -197.10963-129.99100-129.99060-129.99042-101.62206
 Alpha  occ. eigenvalues --  -22.44623 -19.28540 -19.28507 -19.28452 -19.28423
 Alpha  occ. eigenvalues --  -19.28398 -19.28380 -19.28363 -19.28358 -19.28351
 Alpha  occ. eigenvalues --  -19.28276 -19.28256 -19.28170 -19.26945 -19.26919
 Alpha  occ. eigenvalues --  -19.26913 -19.26860 -19.26848 -19.26833 -19.26831
 Alpha  occ. eigenvalues --  -19.26829 -19.26817 -19.26808 -19.26805 -19.26787
 Alpha  occ. eigenvalues --  -19.26774 -19.26770 -19.26761 -19.26759 -19.26758
 Alpha  occ. eigenvalues --  -19.26752 -19.26744 -19.26731 -19.26718 -19.26715
 Alpha  occ. eigenvalues --  -19.26652 -19.26611 -19.24776 -19.24744 -19.24717
 Alpha  occ. eigenvalues --  -19.24690 -18.94199 -18.93106 -18.93081 -13.36511
 Alpha  occ. eigenvalues --  -13.36470 -13.36445 -10.69438 -10.69433 -10.69431
 Alpha  occ. eigenvalues --  -10.69397 -10.69393 -10.69392 -10.69374 -10.69370
 Alpha  occ. eigenvalues --  -10.69363 -10.33011 -10.32181 -10.31980 -10.31032
 Alpha  occ. eigenvalues --  -10.30999 -10.30972 -10.30585 -10.30509  -9.52616
 Alpha  occ. eigenvalues --   -7.27501  -7.27157  -7.27153  -3.21130  -3.21101
 Alpha  occ. eigenvalues --   -3.21069  -3.21049  -3.21039  -3.21027  -3.21017
 Alpha  occ. eigenvalues --   -3.21014  -3.21003  -3.20878  -3.20876  -3.20843
 Alpha  occ. eigenvalues --   -2.78882  -1.85359  -1.85295  -1.85286  -1.85258
 Alpha  occ. eigenvalues --   -1.85150  -1.85080  -1.85064  -1.85047  -1.85033
 Alpha  occ. eigenvalues --   -1.85021  -1.85008  -1.84953  -1.84397  -1.84286
 Alpha  occ. eigenvalues --   -1.84272  -1.84255  -1.84222  -1.84212  -1.84155
 Alpha  occ. eigenvalues --   -1.84139  -1.84113  -1.84104  -1.84075  -1.84063
 Alpha  occ. eigenvalues --   -1.83967  -1.83925  -1.83887  -1.83879  -1.83866
 Alpha  occ. eigenvalues --   -1.83835  -1.83812  -1.83801  -1.83793  -1.83698
 Alpha  occ. eigenvalues --   -1.83687  -1.83679  -1.82037  -1.81692  -1.81678
 Alpha  occ. eigenvalues --   -1.50214  -1.50175  -1.50157  -1.08632  -1.07009
 Alpha  occ. eigenvalues --   -1.06966  -1.06925  -1.06020  -1.06008  -1.05983
 Alpha  occ. eigenvalues --   -1.04584  -1.04575  -1.04566  -1.03993  -1.03984
 Alpha  occ. eigenvalues --   -1.03731  -1.03383  -1.03349  -1.03327  -1.03032
 Alpha  occ. eigenvalues --   -1.03001  -1.02272  -1.02239  -1.02229  -1.02100
 Alpha  occ. eigenvalues --   -1.02011  -1.01982  -1.01911  -1.01895  -1.01774
 Alpha  occ. eigenvalues --   -1.01764  -1.01745  -1.01625  -1.01583  -1.01570
 Alpha  occ. eigenvalues --   -1.01305  -1.00825  -1.00756  -1.00693  -1.00686
 Alpha  occ. eigenvalues --   -1.00023  -0.99970  -0.99905  -0.96189  -0.89271
 Alpha  occ. eigenvalues --   -0.85660  -0.85619  -0.85609  -0.85507  -0.85488
 Alpha  occ. eigenvalues --   -0.85464  -0.85462  -0.85460  -0.85417  -0.84273
 Alpha  occ. eigenvalues --   -0.82499  -0.81072  -0.71926  -0.69622  -0.65070
 Alpha  occ. eigenvalues --   -0.62343  -0.61733  -0.61665  -0.61641  -0.60582
 Alpha  occ. eigenvalues --   -0.58982  -0.58962  -0.58940  -0.58888  -0.58820
 Alpha  occ. eigenvalues --   -0.58809  -0.58783  -0.58742  -0.58562  -0.57398
 Alpha  occ. eigenvalues --   -0.57356  -0.57337  -0.57043  -0.56761  -0.56512
 Alpha  occ. eigenvalues --   -0.56464  -0.56425  -0.56040  -0.55892  -0.55367
 Alpha  occ. eigenvalues --   -0.55356  -0.55319  -0.54452  -0.54158  -0.54135
 Alpha  occ. eigenvalues --   -0.53952  -0.53725  -0.53677  -0.53663  -0.52733
 Alpha  occ. eigenvalues --   -0.52650  -0.52609  -0.52504  -0.52466  -0.51487
 Alpha  occ. eigenvalues --   -0.51476  -0.51453  -0.51368  -0.51315  -0.50785
 Alpha  occ. eigenvalues --   -0.50569  -0.50533  -0.50487  -0.50404  -0.50335
 Alpha  occ. eigenvalues --   -0.50286  -0.50060  -0.50022  -0.49991  -0.49742
 Alpha  occ. eigenvalues --   -0.49647  -0.49605  -0.49505  -0.49483  -0.49281
 Alpha  occ. eigenvalues --   -0.49234  -0.49201  -0.49145  -0.49100  -0.49029
 Alpha  occ. eigenvalues --   -0.48707  -0.48546  -0.48523  -0.48461  -0.47654
 Alpha  occ. eigenvalues --   -0.47632  -0.47148  -0.46480  -0.46047  -0.46028
 Alpha  occ. eigenvalues --   -0.45887  -0.45841  -0.45755  -0.45625  -0.45224
 Alpha  occ. eigenvalues --   -0.45147  -0.45143  -0.44774  -0.44580  -0.44490
 Alpha  occ. eigenvalues --   -0.44474  -0.44440  -0.44299  -0.44212  -0.44180
 Alpha  occ. eigenvalues --   -0.43470  -0.43098  -0.42546  -0.42512  -0.42433
 Alpha  occ. eigenvalues --   -0.42334  -0.42203  -0.42177  -0.42167  -0.41640
 Alpha  occ. eigenvalues --   -0.41622  -0.41594  -0.41033  -0.40985  -0.40770
 Alpha  occ. eigenvalues --   -0.40759  -0.40729  -0.40364  -0.40346  -0.40318
 Alpha  occ. eigenvalues --   -0.40201  -0.40166  -0.40156  -0.40118  -0.39855
 Alpha  occ. eigenvalues --   -0.39368  -0.39261  -0.39232  -0.39126  -0.39060
 Alpha  occ. eigenvalues --   -0.38901  -0.38871  -0.38804  -0.38766  -0.38696
 Alpha  occ. eigenvalues --   -0.38304  -0.38268  -0.38219  -0.38028  -0.37214
 Alpha  occ. eigenvalues --   -0.37178  -0.34796  -0.34759  -0.33653  -0.30376
 Alpha  occ. eigenvalues --   -0.25865
 Alpha virt. eigenvalues --   -0.12123  -0.06410  -0.06348  -0.04902  -0.04865
 Alpha virt. eigenvalues --   -0.04762  -0.01520  -0.01415  -0.01377  -0.01165
 Alpha virt. eigenvalues --   -0.00928  -0.00920  -0.00890  -0.00161  -0.00095
 Alpha virt. eigenvalues --   -0.00055   0.00668   0.00707   0.00730   0.00906
 Alpha virt. eigenvalues --    0.00995   0.01112   0.01750   0.01788   0.01854
 Alpha virt. eigenvalues --    0.02484   0.02725   0.02784   0.02865   0.03472
 Alpha virt. eigenvalues --    0.03560   0.03715   0.03846   0.03923   0.04295
 Alpha virt. eigenvalues --    0.04318   0.04366   0.04394   0.04562   0.05018
 Alpha virt. eigenvalues --    0.05084   0.05991   0.06437   0.07874   0.08094
 Alpha virt. eigenvalues --    0.08444   0.08574   0.08762   0.08850   0.09241
 Alpha virt. eigenvalues --    0.09705   0.09866   0.09890   0.09915   0.10014
 Alpha virt. eigenvalues --    0.10046   0.10175   0.10352   0.10895   0.10941
 Alpha virt. eigenvalues --    0.11541   0.11636   0.11934   0.12240   0.12338
 Alpha virt. eigenvalues --    0.12473   0.12492   0.12528   0.12907   0.13301
 Alpha virt. eigenvalues --    0.13394   0.13588   0.14068   0.14302   0.14772
 Alpha virt. eigenvalues --    0.14915   0.14955   0.15191   0.15339   0.15917
 Alpha virt. eigenvalues --    0.16126   0.16762   0.17036   0.17760   0.17911
 Alpha virt. eigenvalues --    0.18313   0.18433   0.18618   0.18751   0.18943
 Alpha virt. eigenvalues --    0.19302   0.19382   0.19484   0.19575   0.19605
 Alpha virt. eigenvalues --    0.19720   0.19855   0.20039   0.20677   0.20979
 Alpha virt. eigenvalues --    0.21148   0.21323   0.21375   0.21610   0.21659
 Alpha virt. eigenvalues --    0.21726   0.21938   0.21989   0.22216   0.22312
 Alpha virt. eigenvalues --    0.22339   0.22797   0.23193   0.23260   0.23355
 Alpha virt. eigenvalues --    0.23406   0.23565   0.23778   0.23997   0.24250
 Alpha virt. eigenvalues --    0.24350   0.24573   0.24668   0.25011   0.25126
 Alpha virt. eigenvalues --    0.25334   0.25478   0.25560   0.26345   0.26634
 Alpha virt. eigenvalues --    0.26845   0.27126   0.27365   0.27674   0.27892
 Alpha virt. eigenvalues --    0.27994   0.28478   0.28681   0.28797   0.29187
 Alpha virt. eigenvalues --    0.29315   0.29354   0.29457   0.29592   0.29771
 Alpha virt. eigenvalues --    0.30055   0.30421   0.30727   0.31279   0.31531
 Alpha virt. eigenvalues --    0.31883   0.32196   0.32332   0.32798   0.33139
 Alpha virt. eigenvalues --    0.33653   0.34469   0.35527   0.36949   0.37080
 Alpha virt. eigenvalues --    0.38216   0.38630   0.38914   0.39363   0.39615
 Alpha virt. eigenvalues --    0.40467   0.41362   0.41782   0.41846   0.41963
 Alpha virt. eigenvalues --    0.42230   0.42493   0.42638   0.43393   0.43931
 Alpha virt. eigenvalues --    0.44211   0.44404   0.44877   0.45291   0.45553
 Alpha virt. eigenvalues --    0.45718   0.45783   0.45877   0.46528   0.46695
 Alpha virt. eigenvalues --    0.47019   0.47346   0.47943   0.47970   0.48270
 Alpha virt. eigenvalues --    0.48382   0.48553   0.48864   0.49065   0.49181
 Alpha virt. eigenvalues --    0.49497   0.49839   0.49921   0.50018   0.50058
 Alpha virt. eigenvalues --    0.50247   0.50374   0.50531   0.50712   0.50744
 Alpha virt. eigenvalues --    0.51199   0.51279   0.51622   0.51836   0.52062
 Alpha virt. eigenvalues --    0.52510   0.52749   0.52828   0.53067   0.53328
 Alpha virt. eigenvalues --    0.53768   0.54159   0.54291   0.54508   0.54713
 Alpha virt. eigenvalues --    0.54817   0.55431   0.55922   0.55975   0.56452
 Alpha virt. eigenvalues --    0.56626   0.57029   0.57092   0.57148   0.57581
 Alpha virt. eigenvalues --    0.58291   0.58721   0.58878   0.59070   0.59480
 Alpha virt. eigenvalues --    0.59956   0.60519   0.60791   0.61040   0.61615
 Alpha virt. eigenvalues --    0.61943   0.62778   0.63643   0.63932   0.64706
 Alpha virt. eigenvalues --    0.65052   0.65511   0.66430   0.66548   0.66621
 Alpha virt. eigenvalues --    0.68071   0.68286   0.68473   0.68755   0.69305
 Alpha virt. eigenvalues --    0.69463   0.69938   0.71070   0.71555   0.71662
 Alpha virt. eigenvalues --    0.72051   0.72271   0.72761   0.72827   0.73082
 Alpha virt. eigenvalues --    0.73192   0.73353   0.73479   0.73691   0.73843
 Alpha virt. eigenvalues --    0.74073   0.74349   0.75138   0.75705   0.75966
 Alpha virt. eigenvalues --    0.76171   0.76937   0.77229   0.78155   0.78416
 Alpha virt. eigenvalues --    0.78984   0.79253   0.79931   0.80297   0.80647
 Alpha virt. eigenvalues --    0.80719   0.81155   0.82049   0.82156   0.82317
 Alpha virt. eigenvalues --    0.83071   0.83378   0.83850   0.84025   0.84305
 Alpha virt. eigenvalues --    0.84627   0.85018   0.85439   0.86516   0.87119
 Alpha virt. eigenvalues --    0.87858   0.88226   0.89201   0.89760   0.89988
 Alpha virt. eigenvalues --    0.90241   0.90543   0.90726   0.91056   0.91769
 Alpha virt. eigenvalues --    0.91891   0.92251   0.92609   0.92644   0.92722
 Alpha virt. eigenvalues --    0.93234   0.93342   0.93482   0.93816   0.94718
 Alpha virt. eigenvalues --    0.95262   0.95530   0.95899   0.96519   0.96971
 Alpha virt. eigenvalues --    0.97044   0.97188   0.97311   0.97646   0.98494
 Alpha virt. eigenvalues --    0.99163   0.99392   0.99570   0.99896   1.00287
 Alpha virt. eigenvalues --    1.00451   1.00647   1.00748   1.00927   1.01011
 Alpha virt. eigenvalues --    1.01124   1.01292   1.01743   1.02209   1.02791
 Alpha virt. eigenvalues --    1.02826   1.02990   1.03499   1.03835   1.03939
 Alpha virt. eigenvalues --    1.04279   1.04361   1.04767   1.04874   1.05128
 Alpha virt. eigenvalues --    1.05189   1.05376   1.05576   1.06044   1.06477
 Alpha virt. eigenvalues --    1.06922   1.06977   1.07148   1.07374   1.07426
 Alpha virt. eigenvalues --    1.07704   1.07891   1.08199   1.08521   1.08878
 Alpha virt. eigenvalues --    1.08940   1.09172   1.09504   1.10138   1.10771
 Alpha virt. eigenvalues --    1.11162   1.11262   1.11951   1.12093   1.12315
 Alpha virt. eigenvalues --    1.12458   1.12841   1.13039   1.13057   1.13271
 Alpha virt. eigenvalues --    1.13448   1.13613   1.13816   1.13873   1.14189
 Alpha virt. eigenvalues --    1.14319   1.14807   1.15229   1.15370   1.16015
 Alpha virt. eigenvalues --    1.16314   1.16742   1.17446   1.17840   1.18473
 Alpha virt. eigenvalues --    1.18898   1.19696   1.19712   1.20088   1.20260
 Alpha virt. eigenvalues --    1.20954   1.22181   1.22683   1.22972   1.23061
 Alpha virt. eigenvalues --    1.23137   1.23250   1.23645   1.23798   1.24611
 Alpha virt. eigenvalues --    1.25344   1.26125   1.27288   1.27812   1.27990
 Alpha virt. eigenvalues --    1.28565   1.29412   1.29716   1.30241   1.30501
 Alpha virt. eigenvalues --    1.30588   1.30736   1.31099   1.31315   1.31991
 Alpha virt. eigenvalues --    1.32087   1.32167   1.32310   1.32384   1.32531
 Alpha virt. eigenvalues --    1.32727   1.32779   1.33162   1.33414   1.34450
 Alpha virt. eigenvalues --    1.34947   1.35061   1.35297   1.35468   1.35561
 Alpha virt. eigenvalues --    1.35827   1.35933   1.36270   1.36453   1.36551
 Alpha virt. eigenvalues --    1.36882   1.37012   1.37858   1.37938   1.38043
 Alpha virt. eigenvalues --    1.38233   1.38473   1.38811   1.38866   1.38879
 Alpha virt. eigenvalues --    1.39070   1.39347   1.39579   1.39756   1.39882
 Alpha virt. eigenvalues --    1.40204   1.40510   1.40553   1.40842   1.41133
 Alpha virt. eigenvalues --    1.41204   1.41297   1.41584   1.41725   1.41779
 Alpha virt. eigenvalues --    1.42078   1.42351   1.42465   1.42601   1.42633
 Alpha virt. eigenvalues --    1.43056   1.43295   1.43548   1.43572   1.43951
 Alpha virt. eigenvalues --    1.44530   1.44735   1.45267   1.45404   1.45529
 Alpha virt. eigenvalues --    1.45686   1.46217   1.46335   1.46786   1.47342
 Alpha virt. eigenvalues --    1.47742   1.48150   1.49666   1.49714   1.50007
 Alpha virt. eigenvalues --    1.50238   1.50736   1.51769   1.52174   1.52274
 Alpha virt. eigenvalues --    1.52487   1.53097   1.53303   1.53878   1.55379
 Alpha virt. eigenvalues --    1.55657   1.57348   1.58165   1.58225   1.58353
 Alpha virt. eigenvalues --    1.58638   1.58955   1.59031   1.59324   1.60121
 Alpha virt. eigenvalues --    1.60554   1.60917   1.61447   1.61638   1.62070
 Alpha virt. eigenvalues --    1.62167   1.62355   1.63009   1.63271   1.63866
 Alpha virt. eigenvalues --    1.64527   1.64741   1.64871   1.65360   1.65676
 Alpha virt. eigenvalues --    1.65861   1.66926   1.68045   1.68476   1.69372
 Alpha virt. eigenvalues --    1.69916   1.70555   1.70905   1.72468   1.73110
 Alpha virt. eigenvalues --    1.73284   1.73508   1.74193   1.74303   1.74904
 Alpha virt. eigenvalues --    1.75775   1.76421   1.77715   1.77901   1.78125
 Alpha virt. eigenvalues --    1.78592   1.78843   1.79198   1.79447   1.79822
 Alpha virt. eigenvalues --    1.80096   1.81108   1.81429   1.81912   1.82256
 Alpha virt. eigenvalues --    1.82363   1.83000   1.83514   1.83741   1.84218
 Alpha virt. eigenvalues --    1.84469   1.84766   1.84904   1.85514   1.86035
 Alpha virt. eigenvalues --    1.86088   1.86587   1.86714   1.87360   1.87757
 Alpha virt. eigenvalues --    1.88256   1.88409   1.88772   1.88967   1.89089
 Alpha virt. eigenvalues --    1.89662   1.90320   1.91395   1.91913   1.92468
 Alpha virt. eigenvalues --    1.92906   1.93178   1.93655   1.93770   1.94780
 Alpha virt. eigenvalues --    1.96129   1.96330   1.97711   1.97854   1.98301
 Alpha virt. eigenvalues --    1.98967   2.01686   2.02020   2.02138   2.02181
 Alpha virt. eigenvalues --    2.04992   2.05422   2.07070   2.07557   2.08275
 Alpha virt. eigenvalues --    2.11128   2.11344   2.11797   2.12782   2.13115
 Alpha virt. eigenvalues --    2.13786   2.14850   2.14946   2.15655   2.17518
 Alpha virt. eigenvalues --    2.18353   2.18556   2.19107   2.19254   2.20457
 Alpha virt. eigenvalues --    2.20663   2.20844   2.21635   2.24398   2.26326
 Alpha virt. eigenvalues --    2.26476   2.26992   2.27384   2.28791   2.29667
 Alpha virt. eigenvalues --    2.30412   2.30889   2.31384   2.32598   2.32935
 Alpha virt. eigenvalues --    2.33359   2.33777   2.33996   2.34637   2.34828
 Alpha virt. eigenvalues --    2.35105   2.38788   2.39532   2.41684   2.42860
 Alpha virt. eigenvalues --    2.44275   2.47828   2.49082   2.54495   2.64664
 Alpha virt. eigenvalues --    2.66648   2.66993   2.67020   2.67181   2.67676
 Alpha virt. eigenvalues --    2.68984   2.69193   2.69236   2.69349   2.69525
 Alpha virt. eigenvalues --    2.69566   2.69693   2.69814   2.69868   2.70068
 Alpha virt. eigenvalues --    2.70106   2.70141   2.70548   2.70653   2.70745
 Alpha virt. eigenvalues --    2.70780   2.70866   2.70951   2.71333   2.71584
 Alpha virt. eigenvalues --    2.71750   2.71995   2.72864   2.72888   2.73016
 Alpha virt. eigenvalues --    2.73169   2.73344   2.73475   2.73594   2.73628
 Alpha virt. eigenvalues --    2.73839   2.74317   2.74394   2.74413   2.75431
 Alpha virt. eigenvalues --    2.75480   2.75569   2.75653   2.75690   2.75720
 Alpha virt. eigenvalues --    2.75881   2.75948   2.76035   2.76080   2.76181
 Alpha virt. eigenvalues --    2.76244   2.76343   2.76446   2.76937   2.77415
 Alpha virt. eigenvalues --    2.77545   2.77724   2.78145   2.78341   2.78437
 Alpha virt. eigenvalues --    2.78639   2.79019   2.79320   2.79462   2.79628
 Alpha virt. eigenvalues --    2.79677   2.79829   2.80031   2.80313   2.81080
 Alpha virt. eigenvalues --    2.82217   2.82330   2.82520   2.82612   2.82680
 Alpha virt. eigenvalues --    2.82889   2.83078   2.83497   2.83937   2.84855
 Alpha virt. eigenvalues --    2.84891   2.85264   2.85440   2.85739   2.85853
 Alpha virt. eigenvalues --    2.85941   2.86109   2.86338   2.87256   2.87479
 Alpha virt. eigenvalues --    2.87671   2.88328   2.88484   2.88510   2.88644
 Alpha virt. eigenvalues --    2.88698   2.89537   2.89544   2.89616   2.90494
 Alpha virt. eigenvalues --    2.91088   2.91198   2.92162   2.92224   2.92331
 Alpha virt. eigenvalues --    2.92875   2.92940   2.92964   2.93149   2.93240
 Alpha virt. eigenvalues --    2.93660   2.94253   2.94539   2.94592   2.94730
 Alpha virt. eigenvalues --    2.94832   2.94977   2.95217   2.95345   2.95713
 Alpha virt. eigenvalues --    2.95805   2.96076   2.96163   2.96353   2.96480
 Alpha virt. eigenvalues --    2.96557   2.96708   2.96769   2.97164   2.97301
 Alpha virt. eigenvalues --    2.97464   2.98036   2.98183   2.98249   2.99027
 Alpha virt. eigenvalues --    2.99087   2.99130   2.99543   2.99654   2.99821
 Alpha virt. eigenvalues --    2.99983   3.00241   3.00366   3.00632   3.00722
 Alpha virt. eigenvalues --    3.01421   3.01606   3.01634   3.02102   3.02192
 Alpha virt. eigenvalues --    3.02455   3.02780   3.03153   3.03897   3.07446
 Alpha virt. eigenvalues --    3.08038   3.08680   3.08939   3.09003   3.09419
 Alpha virt. eigenvalues --    3.09614   3.09727   3.09903   3.10115   3.14246
 Alpha virt. eigenvalues --    3.14355   3.14457   3.14773   3.14942   3.15372
 Alpha virt. eigenvalues --    3.16593   3.16690   3.16994   3.22265   3.27527
 Alpha virt. eigenvalues --    3.29504   3.29590   3.30233   3.43402   3.43738
 Alpha virt. eigenvalues --    3.44333   3.45274   3.45469   3.47190   3.47226
 Alpha virt. eigenvalues --    3.48182   3.48582   3.48682   3.49452   3.49748
 Alpha virt. eigenvalues --    3.50097   3.53549   3.54221   3.54727   3.55847
 Alpha virt. eigenvalues --    3.56230   3.56703   3.56972   3.57230   3.57428
 Alpha virt. eigenvalues --    3.57598   3.57745   3.57945   3.59066   3.59655
 Alpha virt. eigenvalues --    3.59909   3.61458   3.61833   3.61856   3.62528
 Alpha virt. eigenvalues --    3.62886   3.63508   3.63797   3.64390   3.64672
 Alpha virt. eigenvalues --    3.73028   3.76955  68.66294  68.67391  68.68365
 Alpha virt. eigenvalues --   68.70350  68.74634  68.75697  68.83782  68.84739
 Alpha virt. eigenvalues --   68.85525  68.87629  68.88829  68.90117 576.24755
 Alpha virt. eigenvalues --  576.25830 576.26783 576.28724 576.33015 576.34053
 Alpha virt. eigenvalues --  576.41995 576.42932 576.43693 576.45708 576.46878
 Alpha virt. eigenvalues --  576.48154
  Beta  occ. eigenvalues -- -197.10946-129.99100-129.99060-129.99042-101.62609
  Beta  occ. eigenvalues --  -22.43360 -19.28542 -19.28508 -19.28453 -19.28419
  Beta  occ. eigenvalues --  -19.28392 -19.28374 -19.28356 -19.28352 -19.28344
  Beta  occ. eigenvalues --  -19.28277 -19.28258 -19.28164 -19.26946 -19.26919
  Beta  occ. eigenvalues --  -19.26912 -19.26859 -19.26848 -19.26833 -19.26832
  Beta  occ. eigenvalues --  -19.26828 -19.26816 -19.26809 -19.26806 -19.26789
  Beta  occ. eigenvalues --  -19.26779 -19.26771 -19.26762 -19.26760 -19.26759
  Beta  occ. eigenvalues --  -19.26753 -19.26744 -19.26730 -19.26718 -19.26714
  Beta  occ. eigenvalues --  -19.26651 -19.26611 -19.24753 -19.24724 -19.24693
  Beta  occ. eigenvalues --  -19.24665 -18.93854 -18.91654 -18.91606 -13.36511
  Beta  occ. eigenvalues --  -13.36470 -13.36445 -10.69438 -10.69433 -10.69431
  Beta  occ. eigenvalues --  -10.69397 -10.69393 -10.69392 -10.69374 -10.69370
  Beta  occ. eigenvalues --  -10.69363 -10.33288 -10.32297 -10.31930 -10.31135
  Beta  occ. eigenvalues --  -10.31122 -10.31072 -10.30527 -10.30451  -9.53067
  Beta  occ. eigenvalues --   -7.28918  -7.27466  -7.27461  -3.21130  -3.21095
  Beta  occ. eigenvalues --   -3.21069  -3.21043  -3.21039  -3.21021  -3.21011
  Beta  occ. eigenvalues --   -3.21008  -3.20997  -3.20877  -3.20871  -3.20838
  Beta  occ. eigenvalues --   -2.74817  -1.85354  -1.85290  -1.85280  -1.85250
  Beta  occ. eigenvalues --   -1.85144  -1.85074  -1.85059  -1.85041  -1.85024
  Beta  occ. eigenvalues --   -1.85013  -1.85002  -1.84944  -1.84394  -1.84284
  Beta  occ. eigenvalues --   -1.84269  -1.84253  -1.84219  -1.84209  -1.84152
  Beta  occ. eigenvalues --   -1.84136  -1.84110  -1.84101  -1.84072  -1.84060
  Beta  occ. eigenvalues --   -1.83965  -1.83922  -1.83884  -1.83877  -1.83863
  Beta  occ. eigenvalues --   -1.83833  -1.83810  -1.83798  -1.83789  -1.83696
  Beta  occ. eigenvalues --   -1.83684  -1.83677  -1.80698  -1.75984  -1.75879
  Beta  occ. eigenvalues --   -1.50214  -1.50175  -1.50157  -1.08615  -1.06989
  Beta  occ. eigenvalues --   -1.06944  -1.06898  -1.06019  -1.06006  -1.05982
  Beta  occ. eigenvalues --   -1.04586  -1.04576  -1.04565  -1.03995  -1.03983
  Beta  occ. eigenvalues --   -1.03664  -1.03352  -1.03309  -1.03293  -1.03031
  Beta  occ. eigenvalues --   -1.02993  -1.02254  -1.02215  -1.02210  -1.02091
  Beta  occ. eigenvalues --   -1.02007  -1.01969  -1.01906  -1.01881  -1.01770
  Beta  occ. eigenvalues --   -1.01762  -1.01742  -1.01622  -1.01581  -1.01554
  Beta  occ. eigenvalues --   -1.01305  -1.00785  -1.00754  -1.00693  -1.00686
  Beta  occ. eigenvalues --   -0.99888  -0.99834  -0.99787  -0.96416  -0.89937
  Beta  occ. eigenvalues --   -0.85660  -0.85619  -0.85609  -0.85507  -0.85488
  Beta  occ. eigenvalues --   -0.85464  -0.85462  -0.85460  -0.85417  -0.84706
  Beta  occ. eigenvalues --   -0.84360  -0.82710  -0.72183  -0.69743  -0.65319
  Beta  occ. eigenvalues --   -0.62343  -0.61733  -0.61665  -0.61640  -0.60794
  Beta  occ. eigenvalues --   -0.58979  -0.58961  -0.58939  -0.58809  -0.58800
  Beta  occ. eigenvalues --   -0.58773  -0.58754  -0.58689  -0.58563  -0.57359
  Beta  occ. eigenvalues --   -0.57214  -0.57169  -0.57013  -0.56923  -0.56514
  Beta  occ. eigenvalues --   -0.56431  -0.56389  -0.55848  -0.55636  -0.55346
  Beta  occ. eigenvalues --   -0.55337  -0.55319  -0.54661  -0.54150  -0.54126
  Beta  occ. eigenvalues --   -0.53942  -0.53690  -0.53649  -0.53619  -0.52797
  Beta  occ. eigenvalues --   -0.52660  -0.52596  -0.52485  -0.52461  -0.51464
  Beta  occ. eigenvalues --   -0.51451  -0.51442  -0.51313  -0.51242  -0.50982
  Beta  occ. eigenvalues --   -0.50562  -0.50478  -0.50465  -0.50339  -0.50250
  Beta  occ. eigenvalues --   -0.50168  -0.50031  -0.50018  -0.49956  -0.49690
  Beta  occ. eigenvalues --   -0.49623  -0.49568  -0.49494  -0.49471  -0.49281
  Beta  occ. eigenvalues --   -0.49213  -0.49199  -0.49119  -0.49086  -0.49009
  Beta  occ. eigenvalues --   -0.48701  -0.48541  -0.48523  -0.48455  -0.47815
  Beta  occ. eigenvalues --   -0.47599  -0.47569  -0.46038  -0.45907  -0.45872
  Beta  occ. eigenvalues --   -0.45819  -0.45674  -0.45570  -0.45224  -0.45164
  Beta  occ. eigenvalues --   -0.45149  -0.45051  -0.44773  -0.44578  -0.44473
  Beta  occ. eigenvalues --   -0.44422  -0.44412  -0.44278  -0.44191  -0.44163
  Beta  occ. eigenvalues --   -0.43464  -0.43203  -0.42490  -0.42455  -0.42403
  Beta  occ. eigenvalues --   -0.42288  -0.42254  -0.42146  -0.42130  -0.41626
  Beta  occ. eigenvalues --   -0.41604  -0.41573  -0.41383  -0.41039  -0.40942
  Beta  occ. eigenvalues --   -0.40752  -0.40697  -0.40667  -0.40349  -0.40336
  Beta  occ. eigenvalues --   -0.40303  -0.40154  -0.40143  -0.40131  -0.39798
  Beta  occ. eigenvalues --   -0.39615  -0.39367  -0.39167  -0.39088  -0.39081
  Beta  occ. eigenvalues --   -0.38894  -0.38840  -0.38810  -0.38752  -0.38704
  Beta  occ. eigenvalues --   -0.38652  -0.38300  -0.38264  -0.38216  -0.37721
  Beta  occ. eigenvalues --   -0.37216  -0.37172  -0.35738  -0.35694  -0.33935
  Beta  occ. eigenvalues --   -0.30888
  Beta virt. eigenvalues --   -0.06408  -0.06348  -0.04901  -0.04864  -0.04761
  Beta virt. eigenvalues --   -0.01515  -0.01411  -0.01372  -0.01159  -0.00923
  Beta virt. eigenvalues --   -0.00915  -0.00885  -0.00150  -0.00082  -0.00044
  Beta virt. eigenvalues --    0.00674   0.00715   0.00738   0.00916   0.01000
  Beta virt. eigenvalues --    0.01560   0.01816   0.01832   0.01875   0.02495
  Beta virt. eigenvalues --    0.02764   0.02812   0.02842   0.03508   0.03661
  Beta virt. eigenvalues --    0.03768   0.03998   0.04031   0.04305   0.04319
  Beta virt. eigenvalues --    0.04384   0.04400   0.04569   0.05023   0.05095
  Beta virt. eigenvalues --    0.05593   0.06461   0.07106   0.08494   0.08531
  Beta virt. eigenvalues --    0.08570   0.08647   0.09329   0.09416   0.09603
  Beta virt. eigenvalues --    0.09846   0.09916   0.10030   0.10047   0.10084
  Beta virt. eigenvalues --    0.10138   0.10341   0.10454   0.10906   0.10946
  Beta virt. eigenvalues --    0.11451   0.11611   0.11683   0.11963   0.12254
  Beta virt. eigenvalues --    0.12444   0.12490   0.12549   0.12592   0.13320
  Beta virt. eigenvalues --    0.13405   0.13594   0.14049   0.14292   0.14832
  Beta virt. eigenvalues --    0.14958   0.15046   0.15215   0.15344   0.15918
  Beta virt. eigenvalues --    0.16107   0.16722   0.17048   0.17754   0.17893
  Beta virt. eigenvalues --    0.18314   0.18435   0.18647   0.18768   0.18955
  Beta virt. eigenvalues --    0.19347   0.19416   0.19504   0.19593   0.19683
  Beta virt. eigenvalues --    0.19933   0.20017   0.20407   0.20690   0.20982
  Beta virt. eigenvalues --    0.21147   0.21324   0.21365   0.21610   0.21663
  Beta virt. eigenvalues --    0.21732   0.21954   0.22016   0.22218   0.22316
  Beta virt. eigenvalues --    0.22348   0.22799   0.23159   0.23251   0.23334
  Beta virt. eigenvalues --    0.23411   0.23580   0.23756   0.23952   0.24224
  Beta virt. eigenvalues --    0.24271   0.24527   0.24666   0.24987   0.25122
  Beta virt. eigenvalues --    0.25325   0.25477   0.25536   0.26229   0.26631
  Beta virt. eigenvalues --    0.26841   0.27119   0.27350   0.27657   0.27882
  Beta virt. eigenvalues --    0.27996   0.28425   0.28678   0.28801   0.29148
  Beta virt. eigenvalues --    0.29307   0.29388   0.29457   0.29595   0.29774
  Beta virt. eigenvalues --    0.30054   0.30413   0.30730   0.31285   0.31532
  Beta virt. eigenvalues --    0.31885   0.32201   0.32333   0.32801   0.33173
  Beta virt. eigenvalues --    0.33606   0.34470   0.35293   0.36950   0.37053
  Beta virt. eigenvalues --    0.38193   0.38757   0.38893   0.39407   0.39627
  Beta virt. eigenvalues --    0.40360   0.41365   0.41821   0.41925   0.42040
  Beta virt. eigenvalues --    0.42256   0.42514   0.42751   0.43422   0.44033
  Beta virt. eigenvalues --    0.44232   0.44478   0.44901   0.45240   0.45544
  Beta virt. eigenvalues --    0.45783   0.45858   0.45884   0.46516   0.46705
  Beta virt. eigenvalues --    0.47005   0.47331   0.47900   0.47961   0.48265
  Beta virt. eigenvalues --    0.48356   0.48421   0.48842   0.49062   0.49166
  Beta virt. eigenvalues --    0.49490   0.49829   0.49887   0.49953   0.50034
  Beta virt. eigenvalues --    0.50119   0.50371   0.50519   0.50696   0.50711
  Beta virt. eigenvalues --    0.51198   0.51276   0.51577   0.51819   0.52063
  Beta virt. eigenvalues --    0.52506   0.52679   0.52800   0.53061   0.53292
  Beta virt. eigenvalues --    0.53744   0.54097   0.54278   0.54475   0.54705
  Beta virt. eigenvalues --    0.54808   0.55386   0.55959   0.56026   0.56450
  Beta virt. eigenvalues --    0.56576   0.56953   0.57077   0.57159   0.57530
  Beta virt. eigenvalues --    0.57990   0.58731   0.58810   0.58969   0.59467
  Beta virt. eigenvalues --    0.59943   0.60589   0.60728   0.60988   0.61608
  Beta virt. eigenvalues --    0.61951   0.62696   0.63561   0.64107   0.64631
  Beta virt. eigenvalues --    0.65055   0.65330   0.66391   0.66535   0.66608
  Beta virt. eigenvalues --    0.67810   0.68179   0.68335   0.68733   0.68992
  Beta virt. eigenvalues --    0.69662   0.70085   0.70601   0.71282   0.71647
  Beta virt. eigenvalues --    0.71975   0.72236   0.72666   0.72755   0.73075
  Beta virt. eigenvalues --    0.73171   0.73343   0.73439   0.73628   0.73714
  Beta virt. eigenvalues --    0.74013   0.74197   0.74906   0.75592   0.75750
  Beta virt. eigenvalues --    0.76138   0.77026   0.77145   0.77929   0.78274
  Beta virt. eigenvalues --    0.78997   0.79240   0.80008   0.80584   0.80648
  Beta virt. eigenvalues --    0.81097   0.81192   0.82053   0.82141   0.82295
  Beta virt. eigenvalues --    0.83065   0.83336   0.83846   0.83929   0.84238
  Beta virt. eigenvalues --    0.84626   0.85013   0.85444   0.86405   0.87112
  Beta virt. eigenvalues --    0.87212   0.88095   0.88455   0.89380   0.89661
  Beta virt. eigenvalues --    0.89963   0.90261   0.90404   0.90894   0.91007
  Beta virt. eigenvalues --    0.91605   0.91802   0.92044   0.92184   0.92428
  Beta virt. eigenvalues --    0.92668   0.93216   0.93326   0.93430   0.93843
  Beta virt. eigenvalues --    0.94937   0.95287   0.95522   0.95878   0.96487
  Beta virt. eigenvalues --    0.96952   0.97225   0.97689   0.97828   0.98447
  Beta virt. eigenvalues --    0.99139   0.99375   0.99587   0.99872   1.00280
  Beta virt. eigenvalues --    1.00338   1.00561   1.00669   1.00868   1.01017
  Beta virt. eigenvalues --    1.01170   1.01314   1.01754   1.02169   1.02496
  Beta virt. eigenvalues --    1.02802   1.02939   1.03518   1.03839   1.03941
  Beta virt. eigenvalues --    1.04125   1.04303   1.04779   1.04889   1.05115
  Beta virt. eigenvalues --    1.05189   1.05420   1.05636   1.06058   1.06509
  Beta virt. eigenvalues --    1.06973   1.07018   1.07196   1.07439   1.07568
  Beta virt. eigenvalues --    1.07741   1.07897   1.08347   1.08736   1.08937
  Beta virt. eigenvalues --    1.08991   1.09340   1.09521   1.10150   1.10765
  Beta virt. eigenvalues --    1.11163   1.11267   1.11944   1.12103   1.12297
  Beta virt. eigenvalues --    1.12463   1.12738   1.13024   1.13072   1.13281
  Beta virt. eigenvalues --    1.13425   1.13586   1.13823   1.13858   1.14183
  Beta virt. eigenvalues --    1.14505   1.14852   1.15191   1.15383   1.15998
  Beta virt. eigenvalues --    1.16286   1.16571   1.17447   1.17837   1.18468
  Beta virt. eigenvalues --    1.18982   1.19635   1.19752   1.20072   1.20345
  Beta virt. eigenvalues --    1.20984   1.21405   1.22516   1.22931   1.23023
  Beta virt. eigenvalues --    1.23090   1.23267   1.23646   1.23808   1.24597
  Beta virt. eigenvalues --    1.25285   1.25937   1.27296   1.27770   1.27899
  Beta virt. eigenvalues --    1.28551   1.29425   1.29621   1.30189   1.30496
  Beta virt. eigenvalues --    1.30570   1.30785   1.31106   1.31255   1.31971
  Beta virt. eigenvalues --    1.32121   1.32163   1.32320   1.32361   1.32501
  Beta virt. eigenvalues --    1.32693   1.32835   1.33158   1.33337   1.34277
  Beta virt. eigenvalues --    1.34875   1.34994   1.35080   1.35476   1.35544
  Beta virt. eigenvalues --    1.35765   1.35904   1.36169   1.36457   1.36536
  Beta virt. eigenvalues --    1.36875   1.37000   1.37726   1.37909   1.37991
  Beta virt. eigenvalues --    1.38262   1.38450   1.38797   1.38862   1.38903
  Beta virt. eigenvalues --    1.39084   1.39352   1.39573   1.39789   1.39885
  Beta virt. eigenvalues --    1.40211   1.40474   1.40565   1.40864   1.41149
  Beta virt. eigenvalues --    1.41238   1.41310   1.41590   1.41729   1.41766
  Beta virt. eigenvalues --    1.42087   1.42349   1.42469   1.42601   1.42628
  Beta virt. eigenvalues --    1.43075   1.43296   1.43560   1.43575   1.43960
  Beta virt. eigenvalues --    1.44528   1.44736   1.45263   1.45385   1.45519
  Beta virt. eigenvalues --    1.45686   1.46218   1.46303   1.46854   1.47320
  Beta virt. eigenvalues --    1.47749   1.48156   1.49680   1.49725   1.50014
  Beta virt. eigenvalues --    1.50249   1.50746   1.51794   1.52182   1.52288
  Beta virt. eigenvalues --    1.52494   1.53112   1.53323   1.53900   1.55400
  Beta virt. eigenvalues --    1.55665   1.57352   1.58177   1.58249   1.58377
  Beta virt. eigenvalues --    1.58673   1.58972   1.59057   1.59364   1.60133
  Beta virt. eigenvalues --    1.60574   1.60938   1.61456   1.61648   1.62068
  Beta virt. eigenvalues --    1.62167   1.62367   1.63022   1.63273   1.63928
  Beta virt. eigenvalues --    1.64639   1.64887   1.64997   1.65519   1.65742
  Beta virt. eigenvalues --    1.65966   1.66998   1.68191   1.68541   1.69409
  Beta virt. eigenvalues --    1.69938   1.70587   1.70871   1.72300   1.73109
  Beta virt. eigenvalues --    1.73283   1.73531   1.74209   1.74328   1.74901
  Beta virt. eigenvalues --    1.75727   1.76353   1.77679   1.77888   1.78054
  Beta virt. eigenvalues --    1.78439   1.78806   1.79199   1.79433   1.79826
  Beta virt. eigenvalues --    1.80027   1.81121   1.81420   1.81884   1.82225
  Beta virt. eigenvalues --    1.82350   1.82910   1.83507   1.83770   1.84197
  Beta virt. eigenvalues --    1.84402   1.84750   1.84863   1.85523   1.86003
  Beta virt. eigenvalues --    1.86085   1.86612   1.86726   1.87366   1.87757
  Beta virt. eigenvalues --    1.88065   1.88414   1.88675   1.88864   1.89093
  Beta virt. eigenvalues --    1.89670   1.90340   1.91396   1.91791   1.92470
  Beta virt. eigenvalues --    1.92955   1.93176   1.93628   1.93785   1.94784
  Beta virt. eigenvalues --    1.96127   1.96271   1.97739   1.97894   1.98381
  Beta virt. eigenvalues --    1.98997   2.01494   2.02074   2.02162   2.02301
  Beta virt. eigenvalues --    2.04812   2.05270   2.06985   2.07201   2.08236
  Beta virt. eigenvalues --    2.11141   2.11363   2.11816   2.12136   2.13087
  Beta virt. eigenvalues --    2.13811   2.14861   2.14964   2.15706   2.17540
  Beta virt. eigenvalues --    2.18112   2.18439   2.19165   2.19236   2.20420
  Beta virt. eigenvalues --    2.20822   2.20982   2.21763   2.24328   2.26513
  Beta virt. eigenvalues --    2.26673   2.27257   2.27831   2.29481   2.30094
  Beta virt. eigenvalues --    2.30720   2.31037   2.31454   2.32901   2.33340
  Beta virt. eigenvalues --    2.33710   2.34304   2.34450   2.35057   2.35891
  Beta virt. eigenvalues --    2.36411   2.38495   2.39361   2.41575   2.42718
  Beta virt. eigenvalues --    2.44333   2.47325   2.48812   2.53897   2.64349
  Beta virt. eigenvalues --    2.66407   2.66990   2.67017   2.67145   2.67672
  Beta virt. eigenvalues --    2.68830   2.69193   2.69233   2.69323   2.69523
  Beta virt. eigenvalues --    2.69565   2.69694   2.69816   2.69869   2.70081
  Beta virt. eigenvalues --    2.70129   2.70149   2.70486   2.70677   2.70759
  Beta virt. eigenvalues --    2.70787   2.70867   2.70897   2.71317   2.71587
  Beta virt. eigenvalues --    2.71752   2.71993   2.72869   2.72891   2.73022
  Beta virt. eigenvalues --    2.73189   2.73363   2.73442   2.73482   2.73600
  Beta virt. eigenvalues --    2.73789   2.74325   2.74394   2.74414   2.75436
  Beta virt. eigenvalues --    2.75487   2.75573   2.75660   2.75695   2.75727
  Beta virt. eigenvalues --    2.75890   2.75956   2.76039   2.76088   2.76186
  Beta virt. eigenvalues --    2.76249   2.76349   2.76451   2.76940   2.77434
  Beta virt. eigenvalues --    2.77566   2.77763   2.78168   2.78370   2.78457
  Beta virt. eigenvalues --    2.78659   2.79032   2.79355   2.79492   2.79616
  Beta virt. eigenvalues --    2.79693   2.79827   2.80017   2.80242   2.81083
  Beta virt. eigenvalues --    2.82269   2.82339   2.82562   2.82637   2.82677
  Beta virt. eigenvalues --    2.82912   2.83127   2.83489   2.83928   2.84870
  Beta virt. eigenvalues --    2.84906   2.85285   2.85449   2.85743   2.85782
  Beta virt. eigenvalues --    2.85888   2.86061   2.86339   2.87280   2.87507
  Beta virt. eigenvalues --    2.87699   2.88333   2.88485   2.88513   2.88648
  Beta virt. eigenvalues --    2.88700   2.89548   2.89570   2.89628   2.90497
  Beta virt. eigenvalues --    2.91105   2.91220   2.92172   2.92231   2.92339
  Beta virt. eigenvalues --    2.92901   2.92958   2.92981   2.93173   2.93269
  Beta virt. eigenvalues --    2.93683   2.94241   2.94549   2.94580   2.94647
  Beta virt. eigenvalues --    2.94824   2.94991   2.95212   2.95344   2.95724
  Beta virt. eigenvalues --    2.95819   2.96094   2.96186   2.96360   2.96494
  Beta virt. eigenvalues --    2.96561   2.96653   2.96752   2.97174   2.97311
  Beta virt. eigenvalues --    2.97468   2.98050   2.98197   2.98255   2.98844
  Beta virt. eigenvalues --    2.99077   2.99119   2.99564   2.99684   2.99857
  Beta virt. eigenvalues --    3.00026   3.00259   3.00443   3.00693   3.00788
  Beta virt. eigenvalues --    3.01437   3.01616   3.01644   3.02124   3.02230
  Beta virt. eigenvalues --    3.02468   3.02797   3.03167   3.03908   3.07450
  Beta virt. eigenvalues --    3.08316   3.08518   3.08992   3.09029   3.09462
  Beta virt. eigenvalues --    3.09768   3.10083   3.10241   3.10815   3.14256
  Beta virt. eigenvalues --    3.14361   3.14464   3.14690   3.14914   3.15385
  Beta virt. eigenvalues --    3.16604   3.16701   3.17064   3.22195   3.28006
  Beta virt. eigenvalues --    3.30077   3.30660   3.30760   3.43404   3.43742
  Beta virt. eigenvalues --    3.44331   3.45077   3.45470   3.47194   3.47232
  Beta virt. eigenvalues --    3.48186   3.48584   3.48684   3.49454   3.49750
  Beta virt. eigenvalues --    3.50100   3.53558   3.54239   3.54748   3.55855
  Beta virt. eigenvalues --    3.56238   3.56720   3.56985   3.57247   3.57464
  Beta virt. eigenvalues --    3.57617   3.57773   3.57963   3.59076   3.59658
  Beta virt. eigenvalues --    3.59914   3.61473   3.61838   3.61867   3.62531
  Beta virt. eigenvalues --    3.62889   3.63513   3.63799   3.64393   3.64677
  Beta virt. eigenvalues --    3.72956   3.77183  68.66295  68.67392  68.68367
  Beta virt. eigenvalues --   68.70352  68.74635  68.75700  68.83784  68.84740
  Beta virt. eigenvalues --   68.85527  68.87631  68.88831  68.90119 576.24785
  Beta virt. eigenvalues --  576.25855 576.26810 576.28751 576.33031 576.34094
  Beta virt. eigenvalues --  576.42025 576.42954 576.43726 576.45739 576.46901
  Beta virt. eigenvalues --  576.48187
          Condensed to atoms (all electrons):
          Atomic-Atomic Spin Densities.
 Mulliken charges and spin densities:
               1          2
     1  Cl  -0.347143  -0.609542
     2  C   -0.035063  -0.095674
     3  C    0.012427   0.057047
     4  C   -0.034870  -0.091617
     5  C   -0.031503   0.058392
     6  C    0.007474  -0.115369
     7  C   -0.047948   0.058464
     8  H    0.051014   0.004190
     9  H    0.050856   0.003929
    10  H    0.056033  -0.002082
    11  H    0.057017   0.005068
    12  H    0.054640  -0.002057
    13  C    0.005786  -0.260005
    14  C   -0.045155  -0.019383
    15  H    0.076768   0.010729
    16  H    0.095045   0.001397
    17  H    0.087544  -0.001799
    18  O   -0.672906  -0.000568
    19  O   -0.672514  -0.000531
    20  O   -0.666740  -0.001623
    21  O   -0.673402  -0.000542
    22  W    1.719012   0.000360
    23  W    1.663773   0.000482
    24  W    1.675292   0.000169
    25  W    1.684120   0.000211
    26  W    1.664400   0.002698
    27  W    1.711936   0.002427
    28  W    1.613317   0.003353
    29  W    1.674687   0.002787
    30  O   -0.350003  -0.000530
    31  O   -0.394156  -0.000571
    32  O   -0.396353  -0.000612
    33  O   -0.388987  -0.000569
    34  O   -0.673504  -0.000280
    35  O   -0.678952  -0.000025
    36  O   -0.671051  -0.000129
    37  O   -0.673851  -0.000195
    38  O   -0.398011   0.002106
    39  O   -0.395020   0.002139
    40  O   -0.340394   0.000183
    41  O   -0.395273   0.002106
    42  O   -0.678547   0.000029
    43  O   -0.673073   0.000128
    44  O   -0.670015   0.000250
    45  O   -0.674674   0.000074
    46  O   -0.398618   0.002269
    47  O   -0.352183   0.002157
    48  O   -0.395348   0.001823
    49  O   -0.392311   0.002314
    50  W    1.661776   0.002769
    51  W    1.667333   0.002665
    52  W    1.678202   0.003903
    53  W    1.673072   0.002615
    54  O   -0.724245   0.000111
    55  O   -0.707369   0.000021
    56  O   -0.723263   0.000162
    57  O   -0.722155   0.000071
    58  O   -0.704995   0.000066
    59  O   -0.725116   0.000151
    60  O   -0.723674   0.000206
    61  O   -0.719574   0.000194
    62  O   -0.724245  -0.000186
    63  O   -0.707296  -0.000061
    64  O   -0.724626  -0.000209
    65  O   -0.725124  -0.000211
    66  O   -0.885096   0.005268
    67  O   -0.885107   0.007275
    68  O   -0.882000   0.007029
    69  O   -0.890387   0.006396
    70  K    0.849618   0.000191
    71  K    0.849623   0.000212
    72  K    0.846631   0.000214
    73  V    1.204447   0.937570
 Sum of Mulliken charges =  -1.00000   0.00000
 Mulliken charges and spin densities with hydrogens summed into heavy atoms:
               1          2
     1  Cl  -0.347143  -0.609542
     2  C    0.015950  -0.091485
     3  C    0.012427   0.057047
     4  C    0.015987  -0.087688
     5  C    0.024530   0.056310
     6  C    0.064490  -0.110302
     7  C    0.006692   0.056407
    13  C    0.082554  -0.249276
    14  C    0.137433  -0.019784
    18  O   -0.672906  -0.000568
    19  O   -0.672514  -0.000531
    20  O   -0.666740  -0.001623
    21  O   -0.673402  -0.000542
    22  W    1.719012   0.000360
    23  W    1.663773   0.000482
    24  W    1.675292   0.000169
    25  W    1.684120   0.000211
    26  W    1.664400   0.002698
    27  W    1.711936   0.002427
    28  W    1.613317   0.003353
    29  W    1.674687   0.002787
    30  O   -0.350003  -0.000530
    31  O   -0.394156  -0.000571
    32  O   -0.396353  -0.000612
    33  O   -0.388987  -0.000569
    34  O   -0.673504  -0.000280
    35  O   -0.678952  -0.000025
    36  O   -0.671051  -0.000129
    37  O   -0.673851  -0.000195
    38  O   -0.398011   0.002106
    39  O   -0.395020   0.002139
    40  O   -0.340394   0.000183
    41  O   -0.395273   0.002106
    42  O   -0.678547   0.000029
    43  O   -0.673073   0.000128
    44  O   -0.670015   0.000250
    45  O   -0.674674   0.000074
    46  O   -0.398618   0.002269
    47  O   -0.352183   0.002157
    48  O   -0.395348   0.001823
    49  O   -0.392311   0.002314
    50  W    1.661776   0.002769
    51  W    1.667333   0.002665
    52  W    1.678202   0.003903
    53  W    1.673072   0.002615
    54  O   -0.724245   0.000111
    55  O   -0.707369   0.000021
    56  O   -0.723263   0.000162
    57  O   -0.722155   0.000071
    58  O   -0.704995   0.000066
    59  O   -0.725116   0.000151
    60  O   -0.723674   0.000206
    61  O   -0.719574   0.000194
    62  O   -0.724245  -0.000186
    63  O   -0.707296  -0.000061
    64  O   -0.724626  -0.000209
    65  O   -0.725124  -0.000211
    66  O   -0.885096   0.005268
    67  O   -0.885107   0.007275
    68  O   -0.882000   0.007029
    69  O   -0.890387   0.006396
    70  K    0.849618   0.000191
    71  K    0.849623   0.000212
    72  K    0.846631   0.000214
    73  V    1.204447   0.937570
 Electronic spatial extent (au):  <R**2>=         316831.1760
 Charge=             -1.0000 electrons
 Dipole moment (field-independent basis, Debye):
    X=             28.1682    Y=            -13.5947    Z=            -30.6080  Tot=             43.7620
 Quadrupole moment (field-independent basis, Debye-Ang):
   XX=           -759.6871   YY=           -711.0702   ZZ=           -779.6336
   XY=            126.5162   XZ=            174.6578   YZ=            -92.0039
 Traceless Quadrupole moment (field-independent basis, Debye-Ang):
   XX=             -9.5568   YY=             39.0601   ZZ=            -29.5033
   XY=            126.5162   XZ=            174.6578   YZ=            -92.0039
 Octapole moment (field-independent basis, Debye-Ang**2):
  XXX=          10145.1068  YYY=            849.8554  ZZZ=         -17385.1685  XYY=           4132.2918
  XXY=           -588.8911  XXZ=          -6023.5385  XZZ=           4026.3006  YZZ=           -109.2382
  YYZ=          -7101.0789  XYZ=           1390.6127
 Hexadecapole moment (field-independent basis, Debye-Ang**3):
 XXXX=        -124261.5155 YYYY=         -40807.4453 ZZZZ=        -325158.3022 XXXY=           7497.6157
 XXXZ=          85926.3684 YYYX=           3081.5552 YYYZ=           7127.5454 ZZZX=          89600.2693
 ZZZY=           8097.1508 XXYY=         -35993.7786 XXZZ=         -69414.9283 YYZZ=         -78887.7669
 XXYZ=         -10218.9330 YYXZ=          40786.1761 ZZXY=          14273.1521
 N-N= 2.097661482566D+04 E-N=-5.906271525777D+04  KE= 6.765632071802D+03
                          Isotropic Fermi Contact Couplings
        Atom                 a.u.       MegaHertz       Gauss      10(-4) cm-1
     1  Cl(35)            -0.09698     -21.26132      -7.58657      -7.09201
     2  C(13)             -0.01523      -8.56292      -3.05546      -2.85628
     3  C(13)              0.01828      10.27342       3.66581       3.42685
     4  C(13)             -0.01492      -8.38682      -2.99262      -2.79754
     5  C(13)              0.01309       7.35619       2.62487       2.45376
     6  C(13)             -0.01870     -10.50951      -3.75006      -3.50560
     7  C(13)              0.01317       7.40134       2.64098       2.46882
     8  H(1)               0.00131       2.93309       1.04660       0.97837
     9  H(1)               0.00127       2.83998       1.01337       0.94731
    10  H(1)              -0.00061      -1.37368      -0.49016      -0.45821
    11  H(1)               0.00154       3.43821       1.22684       1.14686
    12  H(1)              -0.00061      -1.35587      -0.48381      -0.45227
    13  C(13)             -0.03640     -20.46298      -7.30170      -6.82572
    14  C(13)             -0.02579     -14.49844      -5.17340      -4.83616
    15  H(1)               0.00337       7.52498       2.68510       2.51006
    16  H(1)               0.00069       1.53240       0.54680       0.51115
    17  H(1)              -0.00149      -3.33965      -1.19167      -1.11399
    18  O(17)             -0.00044       0.13479       0.04810       0.04496
    19  O(17)             -0.00042       0.12855       0.04587       0.04288
    20  O(17)             -0.00164       0.49856       0.17790       0.16630
    21  O(17)             -0.00044       0.13196       0.04708       0.04402
    22  W(183)             0.00000       0.00000       0.00000       0.00000
    23  W(183)             0.00000       0.00000       0.00000       0.00000
    24  W(183)             0.00000       0.00000       0.00000       0.00000
    25  W(183)             0.00000       0.00000       0.00000       0.00000
    26  W(183)             0.00000       0.00000       0.00000       0.00000
    27  W(183)             0.00000       0.00000       0.00000       0.00000
    28  W(183)             0.00000       0.00000       0.00000       0.00000
    29  W(183)             0.00000       0.00000       0.00000       0.00000
    30  O(17)             -0.00020       0.06124       0.02185       0.02043
    31  O(17)             -0.00024       0.07356       0.02625       0.02454
    32  O(17)             -0.00026       0.07885       0.02814       0.02630
    33  O(17)             -0.00023       0.07103       0.02534       0.02369
    34  O(17)             -0.00002       0.00634       0.00226       0.00212
    35  O(17)              0.00018      -0.05329      -0.01902      -0.01778
    36  O(17)              0.00013      -0.03918      -0.01398      -0.01307
    37  O(17)              0.00006      -0.01877      -0.00670      -0.00626
    38  O(17)              0.00196      -0.59432      -0.21207      -0.19824
    39  O(17)              0.00192      -0.58340      -0.20817      -0.19460
    40  O(17)             -0.00455       1.37949       0.49224       0.46015
    41  O(17)              0.00190      -0.57584      -0.20547      -0.19208
    42  O(17)              0.00023      -0.06927      -0.02472      -0.02311
    43  O(17)              0.00030      -0.09032      -0.03223      -0.03013
    44  O(17)              0.00044      -0.13322      -0.04754      -0.04444
    45  O(17)              0.00026      -0.07838      -0.02797      -0.02615
    46  O(17)              0.00217      -0.65736      -0.23456      -0.21927
    47  O(17)              0.00193      -0.58614      -0.20915      -0.19551
    48  O(17)              0.00064      -0.19469      -0.06947      -0.06494
    49  O(17)              0.00216      -0.65318      -0.23307      -0.21788
    50  W(183)             0.00000       0.00000       0.00000       0.00000
    51  W(183)             0.00000       0.00000       0.00000       0.00000
    52  W(183)             0.00000       0.00000       0.00000       0.00000
    53  W(183)             0.00000       0.00000       0.00000       0.00000
    54  O(17)              0.00015      -0.04631      -0.01653      -0.01545
    55  O(17)              0.00003      -0.00834      -0.00298      -0.00278
    56  O(17)              0.00022      -0.06715      -0.02396      -0.02240
    57  O(17)              0.00005      -0.01376      -0.00491      -0.00459
    58  O(17)              0.00015      -0.04517      -0.01612      -0.01507
    59  O(17)              0.00025      -0.07506      -0.02678      -0.02504
    60  O(17)              0.00032      -0.09698      -0.03461      -0.03235
    61  O(17)              0.00031      -0.09266      -0.03306      -0.03091
    62  O(17)             -0.00027       0.08208       0.02929       0.02738
    63  O(17)             -0.00020       0.06137       0.02190       0.02047
    64  O(17)             -0.00030       0.09119       0.03254       0.03042
    65  O(17)             -0.00031       0.09535       0.03402       0.03181
    66  O(17)             -0.00800       2.42359       0.86480       0.80842
    67  O(17)             -0.00691       2.09296       0.74682       0.69814
    68  O(17)             -0.00706       2.13880       0.76318       0.71343
    69  O(17)             -0.00750       2.27231       0.81082       0.75796
    70  K(39)             -0.00002      -0.00201      -0.00072      -0.00067
    71  K(39)             -0.00002      -0.00185      -0.00066      -0.00062
    72  K(39)             -0.00002      -0.00229      -0.00082      -0.00077
    73  V(51)              0.07026      41.37577      14.76390      13.80147
 --------------------------------------------------------
       Center         ----  Spin Dipole Couplings  ----
                      3XX-RR        3YY-RR        3ZZ-RR
 --------------------------------------------------------
     1   Atom        1.281148     -2.590731      1.309583
     2   Atom       -0.014437     -0.016611      0.031047
     3   Atom        0.004543      0.003507     -0.008050
     4   Atom       -0.016601     -0.020326      0.036927
     5   Atom        0.013363      0.005483     -0.018846
     6   Atom       -0.023603     -0.018226      0.041829
     7   Atom        0.010361      0.006653     -0.017015
     8   Atom       -0.001816     -0.002201      0.004017
     9   Atom        0.000305      0.000310     -0.000615
    10   Atom        0.001543      0.000668     -0.002212
    11   Atom        0.004303      0.000465     -0.004768
    12   Atom        0.000609     -0.000696      0.000087
    13   Atom       -0.137105      0.034283      0.102823
    14   Atom        0.009433     -0.045193      0.035760
    15   Atom       -0.002086      0.003590     -0.001505
    16   Atom        0.008714      0.000099     -0.008813
    17   Atom       -0.011261      0.002030      0.009231
    18   Atom        0.001344     -0.001282     -0.000063
    19   Atom        0.001809     -0.001733     -0.000077
    20   Atom       -0.001846     -0.000323      0.002169
    21   Atom       -0.000654      0.000695     -0.000041
    22   Atom       -0.002003      0.000532      0.001471
    23   Atom       -0.001846      0.000613      0.001233
    24   Atom       -0.002421      0.000996      0.001425
    25   Atom       -0.002105      0.000567      0.001538
    26   Atom        0.000428     -0.002223      0.001795
    27   Atom        0.000569     -0.002454      0.001885
    28   Atom        0.000951     -0.003073      0.002122
    29   Atom        0.000707     -0.002693      0.001985
    30   Atom       -0.000135      0.000278     -0.000143
    31   Atom        0.000035     -0.000016     -0.000019
    32   Atom       -0.000528      0.000584     -0.000056
    33   Atom       -0.000184      0.000232     -0.000048
    34   Atom        0.000055     -0.002027      0.001972
    35   Atom       -0.000275     -0.002667      0.002942
    36   Atom       -0.002215     -0.000431      0.002645
    37   Atom       -0.001936     -0.000602      0.002538
    38   Atom        0.006029     -0.003061     -0.002969
    39   Atom        0.006478     -0.003412     -0.003067
    40   Atom       -0.009479      0.009332      0.000147
    41   Atom       -0.004426      0.007775     -0.003348
    42   Atom        0.002628     -0.001087     -0.001541
    43   Atom        0.002900     -0.001099     -0.001802
    44   Atom       -0.004391      0.005686     -0.001295
    45   Atom       -0.003279      0.004776     -0.001496
    46   Atom       -0.000947      0.000828      0.000118
    47   Atom        0.001401     -0.002710      0.001309
    48   Atom        0.005231     -0.007407      0.002177
    49   Atom        0.004788     -0.004912      0.000124
    50   Atom        0.006119     -0.002782     -0.003337
    51   Atom        0.006449     -0.003158     -0.003291
    52   Atom       -0.002352      0.005067     -0.002715
    53   Atom       -0.002176      0.005568     -0.003393
    54   Atom       -0.003206     -0.001620      0.004826
    55   Atom       -0.002987     -0.001890      0.004877
    56   Atom       -0.001115     -0.004519      0.005634
    57   Atom       -0.001157     -0.003843      0.004999
    58   Atom       -0.004009      0.006433     -0.002424
    59   Atom       -0.003939      0.006769     -0.002830
    60   Atom        0.002721      0.000015     -0.002736
    61   Atom        0.002983     -0.000324     -0.002659
    62   Atom        0.000820      0.001070     -0.001890
    63   Atom        0.001101      0.000548     -0.001648
    64   Atom        0.005375     -0.003755     -0.001620
    65   Atom        0.005035     -0.003115     -0.001920
    66   Atom       -0.030295      0.001228      0.029067
    67   Atom       -0.034925     -0.001925      0.036850
    68   Atom       -0.061016      0.021687      0.039328
    69   Atom       -0.057011      0.026364      0.030647
    70   Atom       -0.000581      0.000559      0.000022
    71   Atom        0.000443     -0.000533      0.000090
    72   Atom        0.000787     -0.000998      0.000211
    73   Atom       -0.998767      0.251966      0.746801
 --------------------------------------------------------
                        XY            XZ            YZ
 --------------------------------------------------------
     1   Atom        1.503594      0.501375     -1.463470
     2   Atom        0.061736      0.029706     -0.029805
     3   Atom       -0.016573     -0.007423      0.011196
     4   Atom        0.061188      0.022695     -0.023460
     5   Atom       -0.031001     -0.014743      0.013946
     6   Atom        0.078020      0.032846     -0.028195
     7   Atom       -0.031331     -0.012412      0.015354
     8   Atom       -0.002918     -0.001466      0.000237
     9   Atom       -0.002229     -0.004019     -0.003403
    10   Atom       -0.000468     -0.001436      0.000847
    11   Atom        0.002149      0.002698      0.005975
    12   Atom       -0.001409      0.000401      0.002411
    13   Atom        0.158271      0.097503     -0.057534
    14   Atom        0.071540      0.042204     -0.049625
    15   Atom       -0.005054     -0.010388     -0.014963
    16   Atom       -0.000671      0.009095      0.003137
    17   Atom       -0.002498     -0.010323     -0.001799
    18   Atom        0.000448     -0.001641      0.000238
    19   Atom        0.000372      0.001941     -0.000562
    20   Atom        0.003070      0.000790     -0.000790
    21   Atom       -0.001108      0.001300     -0.001304
    22   Atom        0.002199     -0.002013     -0.004114
    23   Atom        0.002183      0.002253      0.003933
    24   Atom        0.002309      0.001874      0.004221
    25   Atom        0.001996     -0.002030     -0.004139
    26   Atom       -0.002093     -0.004579      0.002431
    27   Atom       -0.001898      0.004722     -0.002741
    28   Atom       -0.001490     -0.004672      0.002601
    29   Atom       -0.001730      0.004760     -0.002266
    30   Atom        0.000369     -0.000147     -0.000583
    31   Atom        0.000436      0.000638      0.000284
    32   Atom        0.000423     -0.000132      0.000796
    33   Atom        0.000277     -0.000087     -0.000633
    34   Atom        0.000581     -0.003382     -0.000798
    35   Atom        0.000867      0.004099      0.001057
    36   Atom       -0.000394     -0.001824      0.003883
    37   Atom       -0.000671      0.001529     -0.003311
    38   Atom        0.004627      0.003860      0.001681
    39   Atom        0.004621     -0.003729     -0.001765
    40   Atom        0.005745      0.004078     -0.005126
    41   Atom       -0.002463     -0.000574      0.003722
[...]
    X1      -18.23079   0.00230   0.00000   0.00209  -0.00156 -18.23235
    Y1       15.63466  -0.01140   0.00000  -0.01137  -0.01542  15.61925
    Z1       19.92653  -0.00335   0.00000  -0.00354  -0.00623  19.92030
    X2      -15.77039   0.00181   0.00000  -0.00334  -0.00512 -15.77551
    Y2        8.03314   0.00131   0.00000   0.02262   0.01965   8.05278
    Z2       23.08093   0.00269   0.00000   0.00179   0.00023  23.08116
    X3      -17.27308   0.00072   0.00000  -0.02246  -0.02414 -17.29722
    Y3        7.43019   0.00323   0.00000   0.03424   0.03058   7.46077
    Z3       20.97045  -0.00511   0.00000   0.00723   0.00579  20.97624
    X4      -18.99769  -0.00237   0.00000  -0.01067  -0.01187 -19.00956
    Y4        5.41795  -0.00265   0.00000   0.01283   0.00880   5.42675
    Z4       21.19397  -0.00073   0.00000  -0.01329  -0.01439  21.17958
    X5      -19.28641  -0.00115   0.00000   0.00060  -0.00024 -19.28665
    Y5        4.12314   0.00007   0.00000   0.00331  -0.00044   4.12270
    Z5       23.46280  -0.00200   0.00000  -0.02083  -0.02171  23.44109
    X6      -17.83242   0.00037   0.00000   0.01049   0.00954 -17.82288
    Y6        4.79110   0.00027   0.00000   0.00119  -0.00189   4.78921
    Z6       25.55940  -0.00133   0.00000  -0.02430  -0.02532  25.53408
    X7      -16.05156   0.00156   0.00000   0.00902   0.00760 -16.04396
    Y7        6.72786   0.00190   0.00000   0.00685   0.00416   6.73202
    Z7       25.34718  -0.00092   0.00000  -0.01162  -0.01297  25.33420
    X8      -14.35997  -0.00026   0.00000  -0.00740  -0.00954 -14.36950
    Y8        9.53486   0.00002   0.00000   0.02477   0.02212   9.55697
    Z8       22.94965   0.00022   0.00000   0.00553   0.00370  22.95335
    X9      -20.13788  -0.00007   0.00000  -0.01177  -0.01287 -20.15075
    Y9        4.88899   0.00005   0.00000   0.01471   0.01015   4.89914
    Z9       19.55353   0.00026   0.00000  -0.01171  -0.01270  19.54084
   X10      -20.64895   0.00018   0.00000   0.00413   0.00366 -20.64529
   Y10        2.57746   0.00043   0.00000   0.00166  -0.00240   2.57506
   Z10       23.59600  -0.00007   0.00000  -0.01719  -0.01781  23.57819
   X11      -18.06407   0.00039   0.00000   0.01706   0.01639 -18.04768
   Y11        3.78521  -0.00003   0.00000  -0.00627  -0.00913   3.77608
   Z11       27.34672  -0.00035   0.00000  -0.02718  -0.02804  27.31868
   X12      -14.87343  -0.00012   0.00000   0.00921   0.00771 -14.86572
   Y12        7.22573   0.00014   0.00000  -0.00014  -0.00230   7.22343
   Z12       26.96886  -0.00051   0.00000  -0.01114  -0.01260  26.95626
   X13      -17.15877  -0.01148   0.00000  -0.06042  -0.06249 -17.22126
   Y13        8.83153  -0.01534   0.00000   0.07338   0.06937   8.90090
   Z13       18.58811   0.01092   0.00000   0.04715   0.04549  18.63359
   X14      -15.90189   0.00306   0.00000  -0.03684  -0.03944 -15.94133
   Y14       11.01175   0.02474   0.00000   0.09968   0.09591  11.10766
   Z14       18.17485  -0.00037   0.00000   0.04611   0.04408  18.21893
   X15      -18.26095   0.00049   0.00000  -0.04279  -0.04470 -18.30565
   Y15        8.01675   0.00036   0.00000   0.06972   0.06521   8.08197
   Z15       17.03583   0.00006   0.00000   0.03540   0.03388  17.06971
   X16      -15.92980   0.00131   0.00000  -0.00326  -0.00611 -15.93591
   Y16       11.89527  -0.00130   0.00000   0.06108   0.05703  11.95231
   Z16       16.31197  -0.00092   0.00000   0.02657   0.02441  16.33638
   X17      -14.72317   0.00413   0.00000   0.05793   0.05516 -14.66801
   Y17       11.91259  -0.00236   0.00000   0.02105   0.01780  11.93039
   Z17       19.60268   0.00047   0.00000   0.01906   0.01687  19.61955
   X18       -1.84281   0.00472   0.00000   0.02356   0.02432  -1.81850
   Y18       -3.40652  -0.00080   0.00000  -0.00237  -0.00341  -3.40993
   Z18       14.10769  -0.00131   0.00000  -0.01356  -0.01366  14.09403
   X19      -15.85256  -0.00466   0.00000  -0.01897  -0.01843 -15.87099
   Y19       -2.51797   0.00123   0.00000  -0.00587  -0.01025  -2.52822
   Z19       14.10099  -0.00144   0.00000  -0.01323  -0.01316  14.08782
   X20      -13.26427  -0.00375   0.00000  -0.01442  -0.01496 -13.27924
   Y20        2.54509   0.00408   0.00000   0.01321   0.01033   2.55541
   Z20       19.79217   0.00097   0.00000   0.01061   0.00984  19.80201
   X21       -4.41160   0.00349   0.00000   0.01573   0.01777  -4.39383
   Y21       -8.31113  -0.00312   0.00000  -0.01860  -0.01935  -8.33048
   Z21       19.94603   0.00139   0.00000   0.01277   0.01349  19.95952
   X22       -6.42470  -0.00225   0.00000   0.01107   0.01067  -6.41404
   Y22        1.30617  -0.01472   0.00000  -0.01993  -0.02235   1.28382
   Z22       12.24218   0.01432   0.00000   0.01241   0.01169  12.25387
   X23      -11.31715   0.00335   0.00000  -0.00839  -0.00677 -11.32392
   Y23       -7.22041   0.01434   0.00000   0.00651   0.00294  -7.21747
   Z23       12.39317   0.01464   0.00000   0.00919   0.00989  12.40306
   X24       -6.82013  -0.00923   0.00000  -0.01792  -0.01820  -6.83833
   Y24        1.64209  -0.01190   0.00000  -0.00097  -0.00205   1.64004
   Z24       21.57303  -0.01443   0.00000  -0.01114  -0.01191  21.56112
   X25      -10.88762   0.01014   0.00000   0.02088   0.02272 -10.86490
   Y25       -7.30586   0.01028   0.00000  -0.00638  -0.00840  -7.31426
   Z25       21.69905  -0.01492   0.00000  -0.00989  -0.00919  21.68986
   X26       -4.59152  -0.01199   0.00000   0.00286   0.00392  -4.58759
   Y26       -4.89857   0.01099   0.00000   0.01235   0.01034  -4.88824
   Z26       12.09809   0.01503   0.00000   0.00669   0.00688  12.10498
   X27      -13.10665   0.01207   0.00000   0.00419   0.00434 -13.10231
   Y27       -1.01062  -0.01184   0.00000  -0.02582  -0.02986  -1.04048
   Z27       12.03678   0.01494   0.00000   0.00893   0.00871  12.04549
   X28      -12.87740   0.01700   0.00000   0.01354   0.01376 -12.86364
   Y28       -0.47429  -0.00458   0.00000   0.00409   0.00162  -0.47267
   Z28       21.84872  -0.01519   0.00000  -0.00831  -0.00862  21.84011
   X29       -4.80655  -0.01595   0.00000  -0.01128  -0.00994  -4.81649
   Y29       -5.17774   0.00280   0.00000  -0.01174  -0.01229  -5.19003
   Z29       21.92747  -0.01524   0.00000  -0.00794  -0.00769  21.91977
   X30       -5.98140   0.00114   0.00000  -0.00777  -0.00875  -5.99015
   Y30        3.53994   0.00455   0.00000  -0.00151  -0.00418   3.53576
   Z30       10.00901  -0.00416   0.00000   0.01027   0.00920  10.01821
   X31      -11.56951  -0.00062   0.00000   0.00833   0.01047 -11.55904
   Y31       -9.58381  -0.00474   0.00000  -0.00523  -0.00919  -9.59300
   Z31       10.23526  -0.00431   0.00000   0.00306   0.00413  10.23939
   X32       -5.06509   0.00342   0.00000  -0.00002  -0.00064  -5.06573
   Y32        3.22927   0.00328   0.00000  -0.00652  -0.00685   3.22242
   Z32       23.74518   0.00440   0.00000  -0.00447  -0.00551  23.73966
   X33      -12.62534  -0.00340   0.00000   0.00322   0.00546 -12.61988
   Y33       -8.81853  -0.00318   0.00000  -0.00052  -0.00261  -8.82114
   Z33       23.93316   0.00457   0.00000  -0.00286  -0.00189  23.93126
   X34       -5.02376   0.00158   0.00000   0.01448   0.01476  -5.00899
   Y34       -1.73317   0.00119   0.00000   0.00298   0.00063  -1.73255
   Z34       10.56141  -0.00473   0.00000  -0.01674  -0.01703  10.54438
   X35      -12.66084  -0.00198   0.00000  -0.01270  -0.01180 -12.67265
   Y35       -4.28800  -0.00031   0.00000  -0.01330  -0.01746  -4.30546
   Z35       10.62087  -0.00483   0.00000  -0.01691  -0.01663  10.60424
   X36      -10.02422  -0.00077   0.00000  -0.00487  -0.00498 -10.02920
   Y36        1.03859   0.00203   0.00000   0.01348   0.01191   1.05050
   Z36       23.35534   0.00468   0.00000   0.01319   0.01259  23.36792
   X37       -7.65300   0.00037   0.00000   0.00583   0.00756  -7.64544
   Y37       -6.67949  -0.00174   0.00000  -0.01764  -0.01862  -6.69811
   Z37       23.44769   0.00470   0.00000   0.01483   0.01537  23.46306
   X38        0.59544   0.00657   0.00000  -0.00196  -0.00193   0.59351
   Y38       -0.03859   0.00217   0.00000   0.00070   0.00076  -0.03783
   Z38       17.53339   0.00191   0.00000   0.00405   0.00339  17.53678
   X39      -18.31256  -0.00669   0.00000   0.00575   0.00714 -18.30541
   Y39       -5.74846  -0.00210   0.00000  -0.00991  -0.01433  -5.76279
   Z39       17.62246   0.00195   0.00000   0.00386   0.00448  17.62694
   X40      -11.98996  -0.00348   0.00000  -0.01364  -0.01518 -12.00514
   Y40        6.48032   0.00842   0.00000  -0.00930  -0.01241   6.46791
   Z40       16.37370  -0.00109   0.00000  -0.00385  -0.00525  16.36845
   X41       -5.68991   0.00205   0.00000   0.00140   0.00431  -5.68559
   Y41      -12.27369  -0.00665   0.00000  -0.00266  -0.00425 -12.27794
   Z41       16.52337  -0.00171   0.00000  -0.00328  -0.00192  16.52146
   X42       -3.35905   0.00299   0.00000   0.01951   0.01912  -3.33993
   Y42        1.40664   0.00389   0.00000   0.00543   0.00403   1.41066
   Z42       14.12198  -0.00181   0.00000  -0.01124  -0.01205  14.10993
   X43      -14.35604  -0.00350   0.00000  -0.01674  -0.01505 -14.37109
   Y43       -7.33826  -0.00361   0.00000  -0.01524  -0.01925  -7.35750
   Z43       14.25060  -0.00136   0.00000  -0.01040  -0.00962  14.24098
   X44       -8.48271   0.00048   0.00000  -0.00634  -0.00726  -8.48998
   Y44        4.14785   0.00528   0.00000   0.01925   0.01748   4.16533
   Z44       19.70191   0.00095   0.00000   0.00559   0.00447  19.70639
   X45       -9.20822  -0.00124   0.00000   0.00867   0.01109  -9.19713
   Y45       -9.89108  -0.00472   0.00000  -0.02405  -0.02595  -9.91704
   Z45       19.89946   0.00164   0.00000   0.01055   0.01161  19.91107
   X46       -3.02411   0.00346   0.00000  -0.00149  -0.00005  -3.02416
   Y46       -6.67786  -0.00399   0.00000  -0.00636  -0.00834  -6.68620
   Z46        9.92919  -0.00481   0.00000   0.00014   0.00058   9.92976
   X47      -14.76322  -0.00387   0.00000   0.01078   0.01051 -14.75271
   Y47        0.52307   0.00313   0.00000  -0.00590  -0.01068   0.51239
   Z47        9.78235  -0.00496   0.00000  -0.00089  -0.00131   9.78104
   X48      -15.18571  -0.00569   0.00000   0.00180   0.00203 -15.18368
   Y48       -0.31258   0.00080   0.00000  -0.00936  -0.01204  -0.32462
   Z48       24.07342   0.00544   0.00000   0.00018  -0.00011  24.07331
   X49       -2.47195   0.00527   0.00000   0.00110   0.00254  -2.46941
   Y49       -5.40626  -0.00057   0.00000   0.00369   0.00404  -5.40221
   Z49       24.11963   0.00494   0.00000  -0.00090  -0.00067  24.11897
   X50       -2.35024  -0.02043   0.00000  -0.00675  -0.00651  -2.35676
   Y50       -1.01519  -0.00729   0.00000  -0.00951  -0.01028  -1.02547
   Z50       16.70199  -0.00435   0.00000  -0.01567  -0.01612  16.68587
   X51      -15.36543   0.02108   0.00000   0.01117   0.01231 -15.35312
   Y51       -4.79886   0.00600   0.00000  -0.00122  -0.00507  -4.80393
   Z51       16.76914  -0.00479   0.00000  -0.01616  -0.01575  16.75339
   X52      -11.09219   0.00785   0.00000  -0.00119  -0.00201 -11.09421
   Y52        3.50953  -0.02278   0.00000  -0.01877  -0.02156   3.48797
   Z52       17.08942   0.00481   0.00000   0.01465   0.01369  17.10312
   X53       -6.60421  -0.00646   0.00000   0.00444   0.00666  -6.59755
   Y53       -9.29849   0.02070   0.00000   0.00702   0.00533  -9.29316
   Z53       17.31706   0.00402   0.00000   0.01515   0.01607  17.33312
   X54       -7.95844   0.00075   0.00000  -0.00142  -0.00013  -7.95858
   Y54       -5.88534  -0.00220   0.00000   0.00785   0.00494  -5.88040
   Z54       11.47709  -0.00324   0.00000   0.00823   0.00865  11.48574
   X55       -9.72826  -0.00092   0.00000   0.00631   0.00623  -9.72203
   Y55       -0.11938   0.00248   0.00000  -0.01980  -0.02314  -0.14252
   Z55       11.37263  -0.00304   0.00000   0.00947   0.00904  11.38167
   X56      -11.65388  -0.00264   0.00000   0.01397   0.01499 -11.63889
   Y56       -3.77935  -0.00001   0.00000   0.00010  -0.00199  -3.78134
   Z56       22.50518   0.00336   0.00000  -0.00863  -0.00846  22.49672
   X57       -5.99326   0.00230   0.00000  -0.01223  -0.01166  -6.00493
   Y57       -1.87430   0.00103   0.00000  -0.00600  -0.00674  -1.88103
   Z57       22.52276   0.00317   0.00000  -0.00976  -0.01000  22.51276
   X58       -8.21958  -0.00042   0.00000   0.00326   0.00252  -8.21706
   Y58        2.98408   0.00366   0.00000  -0.01666  -0.01911   2.96497
   Z58       14.80364  -0.00149   0.00000   0.01183   0.01089  14.81453
   X59       -9.46430  -0.00045   0.00000  -0.00173   0.00034  -9.46397
   Y59       -8.85153  -0.00344   0.00000   0.00630   0.00358  -8.84795
   Z59       14.97524  -0.00221   0.00000   0.00953   0.01044  14.98568
   X60       -4.38164   0.00238   0.00000  -0.01288  -0.01308  -4.39473
   Y60        1.06377   0.00255   0.00000  -0.00492  -0.00581   1.05796
   Z60       19.04200   0.00226   0.00000  -0.01073  -0.01146  19.03054
   X61      -13.31124  -0.00269   0.00000   0.01580   0.01748 -13.29377
   Y61       -6.83262  -0.00209   0.00000  -0.00364  -0.00663  -6.83925
   Z61       19.14314   0.00216   0.00000  -0.01022  -0.00954  19.13360
   X62       -4.85674   0.00177   0.00000   0.00304   0.00475  -4.85199
   Y62       -7.38948  -0.00293   0.00000   0.00684   0.00519  -7.38428
   Z62       14.86964  -0.00142   0.00000   0.00917   0.00976  14.87940
   X63      -12.86156  -0.00154   0.00000   0.00161   0.00122 -12.86035
   Y63        1.49963   0.00354   0.00000  -0.01812  -0.02169   1.47795
   Z63       14.74484  -0.00076   0.00000   0.01081   0.01020  14.75504
   X64      -14.78010  -0.00336   0.00000   0.01065   0.01123 -14.76887
   Y64       -2.22606   0.00026   0.00000  -0.00030  -0.00365  -2.22970
   Z64       19.16254   0.00170   0.00000  -0.01023  -0.01023  19.15231
   X65       -2.93632   0.00356   0.00000  -0.00671  -0.00582  -2.94213
   Y65       -3.54239   0.00040   0.00000  -0.00797  -0.00850  -3.55089
   Z65       19.16143   0.00133   0.00000  -0.01000  -0.01005  19.15139
   X66       -6.33639   0.03840   0.00000   0.06947   0.06995  -6.26644
   Y66       -2.19378   0.00704   0.00000   0.00517   0.00322  -2.19056
   Z66       15.14001  -0.02459   0.00000  -0.03981  -0.04000  15.10001
   X67      -11.36610  -0.03893   0.00000  -0.06399  -0.06314 -11.42924
   Y67       -3.70682  -0.00808   0.00000  -0.01922  -0.02239  -3.72920
   Z67       15.18171  -0.02439   0.00000  -0.04039  -0.04023  15.14148
   X68       -9.66076  -0.01624   0.00000  -0.02923  -0.02910  -9.68986
   Y68       -0.39846   0.03693   0.00000   0.05646   0.05428  -0.34419
   Z68       18.78875   0.02467   0.00000   0.04044   0.04004  18.82879
   X69       -8.00554   0.01606   0.00000   0.03230   0.03364  -7.97190
   Y69       -5.38577  -0.03516   0.00000  -0.06253  -0.06429  -5.45006
   Z69       18.85134   0.02492   0.00000   0.03993   0.04028  18.89162
   X70       -6.07249  -0.00041   0.00000  -0.00043   0.00219  -6.07031
   Y70      -11.59029   0.00111   0.00000   0.00775   0.00517 -11.58513
   Z70       10.67184   0.00088   0.00000   0.01024   0.01150  10.68334
   X71       -0.21800  -0.00125   0.00000  -0.01314  -0.01302  -0.23102
   Y71        0.08288  -0.00070   0.00000  -0.00622  -0.00547   0.07740
   Z71       23.29894  -0.00088   0.00000  -0.01047  -0.01113  23.28781
   X72      -17.54347   0.00111   0.00000   0.01560   0.01701 -17.52646
   Y72       -5.33762   0.00014   0.00000  -0.00386  -0.00719  -5.34481
   Z72       23.48331  -0.00096   0.00000  -0.01027  -0.00973  23.47358
   X73       -8.84607   0.00060   0.00000   0.00276   0.00346  -8.84261
   Y73       -2.91518  -0.00049   0.00000  -0.00510  -0.00737  -2.92254
   Z73       16.98796  -0.00029   0.00000  -0.00063  -0.00065  16.98731
         Item               Value     Threshold  Converged?
 Maximum Force            0.038933     0.000450     NO 
 RMS     Force            0.008810     0.000300     NO 
 Maximum Displacement     0.095914     0.001800     NO 
 RMS     Displacement     0.020248     0.001200     NO 
 Predicted change in Energy=-1.183148D-02
 GradGradGradGradGradGradGradGradGradGradGradGradGradGradGradGradGradGrad

 Unable to Open any file for archive entry.
 1\1\GINC-X11P1N2\Force\UwB97XD\def2SVP\C8H8Cl1K3O40V1W12(1-)\MAYUMIAO\
 02-Jun-2024\0\\# def2svp wb97xd scrf=(smd,solvent=acetonitrile) g09def
 ault scf=(xqc,maxcycle=64) force guess=read nosymm\\Title Card\\-1,1\C
 l,-9.64732071,8.27350738,10.54466334\C,-8.34532952,4.25095349,12.21390
 235\C,-9.14051841,3.93188538,11.09708671\C,-10.05314331,2.86705793,11.
 21536382\C,-10.20592611,2.18187105,12.41597894\C,-9.43651037,2.5353413
 7,13.52545353\C,-8.49411837,3.56022971,13.41314856\H,-7.59896777,5.045
 62891,12.1444326\H,-10.65650767,2.58713954,10.34728464\H,-10.92695412,
 1.36393339,12.48646627\H,-9.55909401,2.00304544,14.47126357\H,-7.87068
 012,3.82369351,14.2713071\C,-9.08003066,4.67344334,9.83640405\C,-8.414
 91742,5.82716752,9.61771784\H,-9.66327656,4.24228307,9.01497232\H,-8.4
 2968882,6.29470787,8.63192418\H,-7.79116647,6.30387117,10.37329174\O,-
 0.97517421,-1.80265043,7.46546674\O,-8.38881503,-1.33245051,7.46192005
 \O,-7.01915033,1.34680204,10.47356498\O,-2.33451747,-4.3980597,10.5549
 8519\W,-3.39980581,0.69119516,6.47828335\W,-5.98877768,-3.82087582,6.5
 5818361\W,-3.6090558,0.8689571,11.41595473\W,-5.76148013,-3.86609367,1
 1.48264192\W,-2.42972588,-2.5922129,6.40203517\W,-6.93573936,-0.534796
 56,6.36958926\W,-6.81442673,-0.25098277,11.56184618\W,-2.54351412,-2.7
 3994405,11.60351482\O,-3.1652199,1.8732568,5.29654075\O,-6.12232105,-5
 .07153445,5.41626659\O,-2.68033154,1.7088561,12.56540627\O,-6.68104406
 ,-4.66656557,12.66488036\O,-2.65845803,-0.91715657,5.5888575\O,-6.6998
 2907,-2.26911291,5.62032301\O,-5.30458815,0.54959987,12.35911177\O,-4.
 04979237,-3.5346325,12.40798223\O,0.31509404,-0.02042021,9.27827157\O,
 -9.69058722,-3.04195455,9.32540456\O,-6.34481283,3.42923598,8.66458853
 \O,-3.01096951,-6.4949579,8.74379339\O,-1.77753077,0.74435922,7.473031
 38\O,-7.59688757,-3.88323864,7.54109294\O,-4.48885789,2.19494887,10.42
 580327\O,-4.87278035,-5.23413518,10.53033864\O,-1.60029182,-3.53377336
 ,5.25429856\O,-7.81236068,0.27679711,5.17659787\O,-8.03593046,-0.16540
 796,12.73910472\O,-1.30810076,-2.86086706,12.7635603\W,-1.24369608,-0.
 53721604,8.83831417\W,-8.13103642,-2.5394468,8.8738482\W,-5.86973592,1
 .85716315,9.04333318\W,-3.49479937,-4.92054914,9.16379087\O,-4.2114261
 ,-3.11438889,6.07341665\O,-5.14797435,-0.06317253,6.018137\O,-6.166966
 71,-1.99994711,11.9092268\O,-3.17149908,-0.9918348,11.91853335\O,-4.34
 961579,1.57910906,7.83374777\O,-5.00829366,-4.68402773,7.92455584\O,-2
 .31866564,0.56292477,10.07659074\O,-7.04400709,-3.61566768,10.13011126
 \O,-2.57007817,-3.91034216,7.8686761\O,-6.80604557,0.79357087,7.802635
 69\O,-7.82128975,-1.17798011,10.14037925\O,-1.55383101,-1.87455275,10.
 13979401\O,-3.35307353,-1.16089825,8.01174889\O,-6.01468125,-1.9615621
 7,8.03381573\O,-5.112252,-0.21085647,9.94257882\O,-4.23634793,-2.85002
 551,9.97569944\K,-3.21342547,-6.13331966,5.6472959\K,-0.11536236,0.043
 85641,12.32926845\K,-9.28360231,-2.8245463,12.42683469\V,-4.68113974,-
 1.54264425,8.98964347\\Version=ES64L-G16RevC.01\HF=-7327.7018427\S2=1.
 021631\S2-1=0.\S2A=0.173243\RMSD=1.765e-09\RMSF=8.810e-03\Dipole=1.331
 5888,-7.1327781,5.6500741\Quadrupole=-7.1052537,29.0402267,-21.934973,
 94.0616755,129.8537908,-68.4026684\PG=C01 [X(C8H8Cl1K3O40V1W12)]\\@
 The archive entry for this job was punched.


 IN THE LONG RUN, DIGGING FOR TRUTH HAS ALWAYS PROVED NOT ONLY 
 MORE INTERESTING BUT MORE PROFITABLE THAN DIGGING FOR GOLD.

                             -- GEORGE R. HARRISON
 Job cpu time:       0 days 20 hours 41 minutes 15.0 seconds.
 Elapsed time:       0 days  0 hours 23 minutes 37.5 seconds.
 File lengths (MBytes):  RWF=   1867 Int=      0 D2E=      0 Chk=    306 Scr=      1
 Normal termination of Gaussian 16 at Sun Jun  2 19:24:19 2024.
