 Entering Gaussian System, Link 0=g16
 Input=JOBS/54_A.gjf
 Output=JOBS/54_A.log
 Initial command:
 /data/app/gaussian/C01-avx2//g16/l1.exe "/tmp/Gau-683062.inp" -scrdir="/tmp/"
 Entering Link 1 = /data/app/gaussian/C01-avx2//g16/l1.exe PID=    683063.
  
 Copyright (c) 1988-2019, Gaussian, Inc.  All Rights Reserved.
  
 This is part of the Gaussian(R) 16 program.  It is based on
 the Gaussian(R) 09 system (copyright 2009, Gaussian, Inc.),
 the Gaussian(R) 03 system (copyright 2003, Gaussian, Inc.),
 the Gaussian(R) 98 system (copyright 1998, Gaussian, Inc.),
 the Gaussian(R) 94 system (copyright 1995, Gaussian, Inc.),
 the Gaussian 92(TM) system (copyright 1992, Gaussian, Inc.),
 the Gaussian 90(TM) system (copyright 1990, Gaussian, Inc.),
 the Gaussian 88(TM) system (copyright 1988, Gaussian, Inc.),
 the Gaussian 86(TM) system (copyright 1986, Carnegie Mellon
 University), and the Gaussian 82(TM) system (copyright 1983,
 Carnegie Mellon University). Gaussian is a federally registered
 trademark of Gaussian, Inc.
  
 This software contains proprietary and confidential information,
 including trade secrets, belonging to Gaussian, Inc.
  
 This software is provided under written license and may be
 used, copied, transmitted, or stored only in accord with that
 written license.
  
 The following legend is applicable only to US Government
 contracts under FAR:
  
                    RESTRICTED RIGHTS LEGEND
  
 Use, reproduction and disclosure by the US Government is
 subject to restrictions as set forth in subparagraphs (a)
 and (c) of the Commercial Computer Software - Restricted
 Rights clause in FAR 52.227-19.
  
 Gaussian, Inc.
 340 Quinnipiac St., Bldg. 40, Wallingford CT 06492
  
  
 ---------------------------------------------------------------
 Warning -- This program may not be used in any manner that
 competes with the business of Gaussian, Inc. or will provide
 assistance to any competitor of Gaussian, Inc.  The licensee
 of this program is prohibited from giving any competitor of
 Gaussian, Inc. access to this program.  By using this program,
 the user acknowledges that Gaussian, Inc. is engaged in the
 business of creating and licensing software in the field of
 computational chemistry and represents and warrants to the
 licensee that it is not a competitor of Gaussian, Inc. and that
 it will not use this program in any manner prohibited above.
 ---------------------------------------------------------------
  

 Cite this work as:
 Gaussian 16, Revision C.01,
 M. J. Frisch, G. W. Trucks, H. B. Schlegel, G. E. Scuseria, 
 M. A. Robb, J. R. Cheeseman, G. Scalmani, V. Barone, 
 G. A. Petersson, H. Nakatsuji, X. Li, M. Caricato, A. V. Marenich, 
 J. Bloino, B. G. Janesko, R. Gomperts, B. Mennucci, H. P. Hratchian, 
 J. V. Ortiz, A. F. Izmaylov, J. L. Sonnenberg, D. Williams-Young, 
 F. Ding, F. Lipparini, F. Egidi, J. Goings, B. Peng, A. Petrone, 
 T. Henderson, D. Ranasinghe, V. G. Zakrzewski, J. Gao, N. Rega, 
 G. Zheng, W. Liang, M. Hada, M. Ehara, K. Toyota, R. Fukuda, 
 J. Hasegawa, M. Ishida, T. Nakajima, Y. Honda, O. Kitao, H. Nakai, 
 T. Vreven, K. Throssell, J. A. Montgomery, Jr., J. E. Peralta, 
 F. Ogliaro, M. J. Bearpark, J. J. Heyd, E. N. Brothers, K. N. Kudin, 
 V. N. Staroverov, T. A. Keith, R. Kobayashi, J. Normand, 
 K. Raghavachari, A. P. Rendell, J. C. Burant, S. S. Iyengar, 
 J. Tomasi, M. Cossi, J. M. Millam, M. Klene, C. Adamo, R. Cammi, 
 J. W. Ochterski, R. L. Martin, K. Morokuma, O. Farkas, 
 J. B. Foresman, and D. J. Fox, Gaussian, Inc., Wallingford CT, 2019.
 
 ******************************************
 Gaussian 16:  ES64L-G16RevC.01  3-Jul-2019
                 2-Jun-2024 
 ******************************************
 %chk=a.chk
 %nprocshared=56
 Will use up to   56 processors via shared memory.
 %mem=96gb
 ----------------------------------------------------------------------
 # def2svp wb97xd scrf=(smd,solvent=acetonitrile) g09default scf=(xqc,m
 axcycle=64) force guess=read nosymm
 ----------------------------------------------------------------------
 1/10=7,30=1,38=1,158=3,167=1/1,3;
 2/12=2,15=1,17=6,18=5,40=1/2;
 3/5=43,7=101,11=2,25=1,27=10,30=1,70=32201,71=1,72=2,74=-58,75=-4,116=-2,158=3/1,2,3;
 4/5=1,60=-1/1;
 5/5=2,7=64,8=3,13=1,38=6,53=2,87=10/2,8;
 6/7=2,8=2,9=2,10=2,28=1,87=10/1;
 7/29=1,30=1,87=10/1,2,3,16;
 1/10=7,30=1,158=3,167=1/3;
 99//99;
 Using 2006 physical constants.
 ----------
 Title Card
 ----------
 Symbolic Z-matrix:
 Charge = -1 Multiplicity = 1
 17                   -9.64456   8.27213   10.54325 
 6                    -8.34654   4.25235   12.21327 
 6                    -9.14152   3.93231   11.09655 
 6                    -10.05456   2.86802   11.21555 
 6                    -10.2062   2.18248   12.41608 
 6                    -9.43516   2.5351    13.52473 
 6                    -8.49405   3.56117   13.41235 
 1                    -7.60196   5.04871   12.14412 
 1                    -10.65967   2.58962   10.34819 
 1                    -10.92789   1.36519   12.48724 
 1                    -9.55556   2.00131   14.46995 
 1                    -7.87086   3.82551   14.27044 
 6                    -9.08205   4.67405   9.83603 
 6                    -8.41757   5.82836   9.6188 
 1                    -9.66616   4.24365   9.01479 
 1                    -8.43498   6.29953   8.63489 
 1                    -7.79253   6.3026    10.37484 
 8                    -0.97516  -1.80335   7.46504 
 8                    -8.38788  -1.3322    7.46198 
 8                    -7.01844   1.34639   10.474 
 8                    -2.33457  -4.39823   10.55505 
 74                   -3.39893   0.69197   6.47928 
 74                   -5.98875  -3.82164   6.55837 
 74                   -3.60819   0.86918   11.41515 
 74                   -5.76162  -3.86698   11.48248 
 74                   -2.43006  -2.59194   6.40136 
 74                   -6.93459  -0.53523   6.36881 
 74                   -6.81332  -0.25152   11.56263 
 74                   -2.54395  -2.74048   11.60406 
 8                    -3.16423   1.87453   5.29802 
 8                    -6.12249  -5.07215   5.41634 
 8                    -2.67946   1.70877   12.56468 
 8                    -6.68106  -4.66789   12.66464 
 8                    -2.65888  -0.917     5.58892 
 8                    -6.6995   -2.26953   5.62029 
 8                    -5.3034    0.54933   12.35894 
 8                    -4.04993  -3.53529   12.40819 
 8                     0.31623  -0.022     9.27769 
 8                    -9.69044  -3.04149   9.32475 
 8                    -6.34545   3.42868   8.66479 
 8                    -3.01057  -6.49515   8.74387 
 8                    -1.77668   0.74362   7.47306 
 8                    -7.59683  -3.88319   7.54116 
 8                    -4.48828   2.19482   10.42556 
 8                    -4.87262  -5.2346    10.53033 
 8                    -1.60067  -3.53258   5.2531 
 8                    -7.811     0.27591   5.1754 
 8                    -8.03418  -0.16473   12.74036 
 8                    -1.30925  -2.86148   12.76494 
 74                   -1.24279  -0.5386    8.83852 
 74                   -8.13062  -2.53902   8.87374 
 74                   -5.87023   1.85674   9.04339 
 74                   -3.49449  -4.92076   9.16363 
 8                    -4.21168  -3.11487   6.07337 
 8                    -5.14725  -0.06304   6.01839 
 8                    -6.16669  -2.00057   11.9099 
 8                    -3.17126  -0.99222   11.9177 
 8                    -4.34901   1.57902   7.83444 
 8                    -5.00855  -4.68477   7.92469 
 8                    -2.3175    0.56255   10.07621 
 8                    -7.04389  -3.6159    10.13019 
 8                    -2.57046  -3.91048   7.86843 
 8                    -6.80556   0.79324   7.80261 
 8                    -7.82068  -1.1782    10.141 
 8                    -1.55294  -1.87529   10.1401 
 8                    -3.35273  -1.16118   8.01218 
 8                    -6.01388  -1.9621    8.03382 
 8                    -5.11159  -0.2112    9.94246 
 8                    -4.23656  -2.85036   9.97585 
 19                   -3.21377  -6.13344   5.64751 
 19                   -0.11651   0.042     12.32791 
 19                   -9.2834   -2.82356   12.42577 
 23                   -4.68076  -1.54305   8.98977 
 

 GradGradGradGradGradGradGradGradGradGradGradGradGradGradGradGradGradGrad
 Berny optimization.
 Initialization pass.
 Trust Radius=3.00D-01 FncErr=1.00D-07 GrdErr=1.00D-07 EigMax=2.50D+02 EigMin=1.00D-04
 Number of steps in this run=      2 maximum allowed number of steps=      2.
 GradGradGradGradGradGradGradGradGradGradGradGradGradGradGradGradGradGrad

 Symmetry turned off by external request.
 Stoichiometry    C8H8ClK3O40VW12(1-)
 Framework group  C1[X(C8H8ClK3O40VW12)]
 Deg. of freedom   213
 Full point group                 C1      NOp   1
                          Input orientation:                          
 ---------------------------------------------------------------------
 Center     Atomic      Atomic             Coordinates (Angstroms)
 Number     Number       Type             X           Y           Z
 ---------------------------------------------------------------------
      1         17           0       -9.644563    8.272132   10.543253
      2          6           0       -8.346544    4.252350   12.213269
      3          6           0       -9.141519    3.932310   11.096546
      4          6           0      -10.054556    2.868018   11.215550
      5          6           0      -10.206205    2.182478   12.416084
      6          6           0       -9.435160    2.535097   13.524728
      7          6           0       -8.494054    3.561175   13.412355
      8          1           0       -7.601957    5.048715   12.144117
      9          1           0      -10.659667    2.589621   10.348188
     10          1           0      -10.927890    1.365189   12.487243
     11          1           0       -9.555556    2.001308   14.469950
     12          1           0       -7.870856    3.825506   14.270441
     13          6           0       -9.082048    4.674048    9.836025
     14          6           0       -8.417565    5.828362    9.618804
     15          1           0       -9.666158    4.243649    9.014793
     16          1           0       -8.434983    6.299527    8.634893
     17          1           0       -7.792532    6.302598   10.374836
     18          8           0       -0.975162   -1.803350    7.465036
     19          8           0       -8.387877   -1.332203    7.461984
     20          8           0       -7.018445    1.346392   10.474002
     21          8           0       -2.334572   -4.398228   10.555051
     22         74           0       -3.398925    0.691974    6.479283
     23         74           0       -5.988747   -3.821642    6.558367
     24         74           0       -3.608189    0.869183   11.415146
     25         74           0       -5.761615   -3.866981   11.482483
     26         74           0       -2.430059   -2.591942    6.401356
     27         74           0       -6.934588   -0.535230    6.368811
     28         74           0       -6.813321   -0.251517   11.562633
     29         74           0       -2.543950   -2.740479   11.604056
     30          8           0       -3.164233    1.874533    5.298022
     31          8           0       -6.122489   -5.072152    5.416337
     32          8           0       -2.679457    1.708767   12.564678
     33          8           0       -6.681064   -4.667886   12.664637
     34          8           0       -2.658880   -0.916998    5.588918
     35          8           0       -6.699502   -2.269528    5.620287
     36          8           0       -5.303398    0.549328   12.358945
     37          8           0       -4.049931   -3.535290   12.408189
     38          8           0        0.316227   -0.022000    9.277687
     39          8           0       -9.690441   -3.041487    9.324755
     40          8           0       -6.345452    3.428678    8.664789
     41          8           0       -3.010572   -6.495153    8.743865
     42          8           0       -1.776681    0.743616    7.473055
     43          8           0       -7.596825   -3.883191    7.541162
     44          8           0       -4.488275    2.194818   10.425564
     45          8           0       -4.872618   -5.234597   10.530326
     46          8           0       -1.600667   -3.532581    5.253095
     47          8           0       -7.811003    0.275909    5.175404
     48          8           0       -8.034180   -0.164726   12.740364
     49          8           0       -1.309255   -2.861483   12.764936
     50         74           0       -1.242785   -0.538597    8.838518
     51         74           0       -8.130625   -2.539019    8.873735
     52         74           0       -5.870231    1.856742    9.043388
     53         74           0       -3.494488   -4.920759    9.163632
     54          8           0       -4.211680   -3.114873    6.073368
     55          8           0       -5.147255   -0.063041    6.018388
     56          8           0       -6.166694   -2.000571   11.909905
     57          8           0       -3.171262   -0.992215   11.917699
     58          8           0       -4.349011    1.579019    7.834442
     59          8           0       -5.008547   -4.684771    7.924693
     60          8           0       -2.317504    0.562551   10.076214
     61          8           0       -7.043887   -3.615896   10.130192
     62          8           0       -2.570463   -3.910482    7.868425
     63          8           0       -6.805561    0.793244    7.802606
     64          8           0       -7.820680   -1.178198   10.140999
     65          8           0       -1.552939   -1.875294   10.140105
     66          8           0       -3.352734   -1.161182    8.012176
     67          8           0       -6.013882   -1.962099    8.033818
     68          8           0       -5.111589   -0.211198    9.942459
     69          8           0       -4.236562   -2.850359    9.975854
     70         19           0       -3.213773   -6.133439    5.647514
     71         19           0       -0.116514    0.042003   12.327910
     72         19           0       -9.283399   -2.823558   12.425770
     73         23           0       -4.680757   -1.543054    8.989769
 ---------------------------------------------------------------------
 Rotational constants (GHZ):           0.0172146           0.0132209           0.0129980
 Standard basis: def2SVP (5D, 7F)
  1217 basis functions,  2313 primitive gaussians,  1337 cartesian basis functions
   321 alpha electrons      321 beta electrons
       nuclear repulsion energy     20977.0591400700 Hartrees.
 NAtoms=   73 NActive=   73 NUniq=   73 SFac= 1.00D+00 NAtFMM=   60 NAOKFM=T Big=T
 Integral buffers will be    131072 words long.
 Raffenetti 2 integral format.
 Two-electron integral symmetry is turned off.
 Nuclear repulsion after empirical dispersion term =    20976.7827281870 Hartrees.
 Force PCM accuracy= 1.00D-10.
 ------------------------------------------------------------------------------
 Polarizable Continuum Model (PCM)
 =================================
 Model                : PCM (using non-symmetric T matrix).
 Atomic radii         : SMD-Coulomb.
 Polarization charges : Total charges.
 Charge compensation  : None.
 Solution method      : On-the-fly selection.
 Cavity type          : VdW (van der Waals Surface) (Alpha=1.000).
 Cavity algorithm     : GePol (No added spheres)
                        Default sphere list used, NSphG=   73.
                        Lebedev-Laikov grids with approx.  5.0 points / Ang**2.
                        Smoothing algorithm: York/Karplus (Gamma=1.0000).
                        Polarization charges: spherical gaussians, with
                                              point-specific exponents (IZeta= 3).
                        Self-potential: point-specific (ISelfS= 7).
                        Self-field    : sphere-specific E.n sum rule (ISelfD= 2).
 1st derivatives      : Analytical E(r).r(x)/FMM algorithm (CHGder, D1EAlg=3).
                        Cavity 1st derivative terms included.
 Solvent              : Acetonitrile, Eps=  35.688000 Eps(inf)=   1.806874
 ------------------------------------------------------------------------------
 ------------------------------------------------------------------------------
 Atomic radii for non-electrostatic terms: SMD-CDS.
 ------------------------------------------------------------------------------
 Nuclear repulsion after PCM non-electrostatic terms =    20976.7770291922 Hartrees.
 One-electron integrals computed using PRISM.
   1 Symmetry operations used in ECPInt.
 ECPInt:  NShTT=  127765 NPrTT=  468030 LenC2=   96522 LenP2D=  220881.
 LDataN:  DoStor=T MaxTD1= 8 Len=  415
 NBasis=  1217 RedAO= T EigKep=  1.38D-04  NBF=  1217
 NBsUse=  1217 1.00D-06 EigRej= -1.00D+00 NBFU=  1217
 Defaulting to unpruned grid for atomic number  74.
 Defaulting to unpruned grid for atomic number  74.
 Defaulting to unpruned grid for atomic number  74.
 Defaulting to unpruned grid for atomic number  74.
 Defaulting to unpruned grid for atomic number  74.
 Defaulting to unpruned grid for atomic number  74.
 Defaulting to unpruned grid for atomic number  74.
 Defaulting to unpruned grid for atomic number  74.
 Initial guess from the checkpoint file:  "a.chk"
 B after Tr=     0.001194   -0.000796    0.000225
         Rot=    1.000000   -0.000010    0.000013    0.000035 Ang=  -0.00 deg.
 Requested convergence on RMS density matrix=1.00D-08 within  64 cycles.
 Requested convergence on MAX density matrix=1.00D-06.
 Requested convergence on             energy=1.00D-06.
 No special actions if energy rises.
 Defaulting to unpruned grid for atomic number  74.
 Defaulting to unpruned grid for atomic number  74.
 Defaulting to unpruned grid for atomic number  74.
 Defaulting to unpruned grid for atomic number  74.
 Defaulting to unpruned grid for atomic number  74.
 Defaulting to unpruned grid for atomic number  74.
 Defaulting to unpruned grid for atomic number  74.
 Defaulting to unpruned grid for atomic number  74.
 Defaulting to unpruned grid for atomic number  74.
 Defaulting to unpruned grid for atomic number  74.
 Defaulting to unpruned grid for atomic number  74.
 Defaulting to unpruned grid for atomic number  74.
 Defaulting to unpruned grid for atomic number  74.
 Defaulting to unpruned grid for atomic number  74.
 Defaulting to unpruned grid for atomic number  74.
 Defaulting to unpruned grid for atomic number  74.
 Defaulting to unpruned grid for atomic number  74.
 Defaulting to unpruned grid for atomic number  74.
 Defaulting to unpruned grid for atomic number  74.
 Defaulting to unpruned grid for atomic number  74.
 Defaulting to unpruned grid for atomic number  74.
 Defaulting to unpruned grid for atomic number  74.
 Defaulting to unpruned grid for atomic number  74.
 Defaulting to unpruned grid for atomic number  74.
 Defaulting to unpruned grid for atomic number  74.
 Defaulting to unpruned grid for atomic number  74.
 Defaulting to unpruned grid for atomic number  74.
 Defaulting to unpruned grid for atomic number  74.
 Defaulting to unpruned grid for atomic number  74.
 Defaulting to unpruned grid for atomic number  74.
 Defaulting to unpruned grid for atomic number  74.
 Defaulting to unpruned grid for atomic number  74.
 Defaulting to unpruned grid for atomic number  74.
 Defaulting to unpruned grid for atomic number  74.
 Defaulting to unpruned grid for atomic number  74.
 Defaulting to unpruned grid for atomic number  74.
 Defaulting to unpruned grid for atomic number  74.
 Defaulting to unpruned grid for atomic number  74.
 Defaulting to unpruned grid for atomic number  74.
 Defaulting to unpruned grid for atomic number  74.
 Defaulting to unpruned grid for atomic number  74.
 Defaulting to unpruned grid for atomic number  74.
 Defaulting to unpruned grid for atomic number  74.
 Defaulting to unpruned grid for atomic number  74.
 Defaulting to unpruned grid for atomic number  74.
 Defaulting to unpruned grid for atomic number  74.
 Defaulting to unpruned grid for atomic number  74.
 Defaulting to unpruned grid for atomic number  74.
 Defaulting to unpruned grid for atomic number  74.
 Defaulting to unpruned grid for atomic number  74.
 Defaulting to unpruned grid for atomic number  74.
 Defaulting to unpruned grid for atomic number  74.
 Defaulting to unpruned grid for atomic number  74.
 Defaulting to unpruned grid for atomic number  74.
 Defaulting to unpruned grid for atomic number  74.
 Defaulting to unpruned grid for atomic number  74.
 Inv3:  Mode=1 IEnd=    87447603.
 Iteration    1 A*A^-1 deviation from unit magnitude is 4.00D-15 for   1882.
 Iteration    1 A*A^-1 deviation from orthogonality  is 4.22D-15 for   3434   1960.
 Iteration    1 A^-1*A deviation from unit magnitude is 4.22D-15 for   3268.
 Iteration    1 A^-1*A deviation from orthogonality  is 6.13D-11 for   4780   4777.
 Error on total polarization charges =  0.01614
 SCF Done:  E(RwB97XD) =  -7327.70184891     A.U. after   12 cycles
            NFock= 12  Conv=0.19D-08     -V/T= 2.0832
 SMD-CDS (non-electrostatic) energy       (kcal/mol) =      -3.58
 (included in total energy above)
 QCSCF skips out because SCF is already converged.

 **********************************************************************

            Population analysis using the SCF Density.

 **********************************************************************

 Alpha  occ. eigenvalues -- -197.29463-130.00089-130.00080-129.99981-101.48352
 Alpha  occ. eigenvalues --  -22.62585 -19.33634 -19.33627 -19.33625 -19.33601
 Alpha  occ. eigenvalues --  -19.30728 -19.30689 -19.30687 -19.30683 -19.30675
 Alpha  occ. eigenvalues --  -19.30670 -19.30664 -19.30635 -19.30562 -19.30369
 Alpha  occ. eigenvalues --  -19.30346 -19.30180 -19.29319 -19.29313 -19.29298
 Alpha  occ. eigenvalues --  -19.29277 -19.29267 -19.29259 -19.29227 -19.29204
 Alpha  occ. eigenvalues --  -19.29201 -19.29173 -19.29172 -19.29147 -19.29132
 Alpha  occ. eigenvalues --  -19.29099 -19.29091 -19.29089 -19.29086 -19.29060
 Alpha  occ. eigenvalues --  -19.29056 -19.29010 -19.28988 -19.28966 -19.28939
 Alpha  occ. eigenvalues --  -19.28859 -19.11541 -19.11534 -19.11525 -13.37492
 Alpha  occ. eigenvalues --  -13.37484 -13.37378 -10.70422 -10.70415 -10.70414
 Alpha  occ. eigenvalues --  -10.70414 -10.70407 -10.70405 -10.70309 -10.70302
 Alpha  occ. eigenvalues --  -10.70297 -10.29841 -10.29340 -10.29281 -10.29052
 Alpha  occ. eigenvalues --  -10.28962 -10.28948 -10.28073 -10.27492  -9.38828
 Alpha  occ. eigenvalues --   -7.13654  -7.13606  -7.13597  -3.23323  -3.23319
 Alpha  occ. eigenvalues --   -3.23306  -3.23299  -3.23293  -3.23278  -3.23263
 Alpha  occ. eigenvalues --   -3.23259  -3.23229  -3.22980  -3.22965  -3.22786
 Alpha  occ. eigenvalues --   -2.91821  -1.94202  -1.94168  -1.94156  -1.87722
 Alpha  occ. eigenvalues --   -1.87678  -1.87662  -1.87634  -1.87491  -1.87473
 Alpha  occ. eigenvalues --   -1.87469  -1.87453  -1.87430  -1.87280  -1.87250
 Alpha  occ. eigenvalues --   -1.87100  -1.86630  -1.86512  -1.86502  -1.86486
 Alpha  occ. eigenvalues --   -1.86460  -1.86438  -1.86346  -1.86336  -1.86319
 Alpha  occ. eigenvalues --   -1.86300  -1.86294  -1.86265  -1.86150  -1.86138
 Alpha  occ. eigenvalues --   -1.86126  -1.86117  -1.86046  -1.86031  -1.85992
 Alpha  occ. eigenvalues --   -1.85924  -1.85908  -1.85808  -1.85718  -1.85670
 Alpha  occ. eigenvalues --   -1.51183  -1.51173  -1.51076  -1.13064  -1.11294
 Alpha  occ. eigenvalues --   -1.11210  -1.11206  -1.08968  -1.08532  -1.08492
 Alpha  occ. eigenvalues --   -1.08322  -1.07569  -1.07509  -1.07498  -1.06902
 Alpha  occ. eigenvalues --   -1.06894  -1.06874  -1.06329  -1.06309  -1.05319
 Alpha  occ. eigenvalues --   -1.05310  -1.04983  -1.04979  -1.04969  -1.04194
 Alpha  occ. eigenvalues --   -1.04184  -1.04173  -1.04030  -1.04010  -1.03999
 Alpha  occ. eigenvalues --   -1.03942  -1.03919  -1.03898  -1.03765  -1.03741
 Alpha  occ. eigenvalues --   -1.03619  -1.03555  -1.03304  -1.03265  -1.03120
 Alpha  occ. eigenvalues --   -1.03108  -1.03029  -1.02966  -0.94361  -0.86652
 Alpha  occ. eigenvalues --   -0.86645  -0.86553  -0.86483  -0.86458  -0.86457
 Alpha  occ. eigenvalues --   -0.86453  -0.86437  -0.86365  -0.86328  -0.82801
 Alpha  occ. eigenvalues --   -0.79737  -0.71609  -0.69654  -0.67996  -0.64619
 Alpha  occ. eigenvalues --   -0.63995  -0.63915  -0.63903  -0.63322  -0.63303
 Alpha  occ. eigenvalues --   -0.63178  -0.62921  -0.62685  -0.62606  -0.62003
 Alpha  occ. eigenvalues --   -0.61627  -0.61614  -0.61518  -0.61259  -0.61249
 Alpha  occ. eigenvalues --   -0.61181  -0.60419  -0.59488  -0.59468  -0.59455
 Alpha  occ. eigenvalues --   -0.59418  -0.59370  -0.58567  -0.58005  -0.57976
 Alpha  occ. eigenvalues --   -0.57886  -0.57073  -0.57037  -0.57008  -0.56296
 Alpha  occ. eigenvalues --   -0.56277  -0.56123  -0.55704  -0.54862  -0.54812
 Alpha  occ. eigenvalues --   -0.54771  -0.54515  -0.54244  -0.54112  -0.54100
 Alpha  occ. eigenvalues --   -0.54021  -0.53963  -0.53240  -0.53204  -0.53074
 Alpha  occ. eigenvalues --   -0.53040  -0.52905  -0.52709  -0.52674  -0.52642
 Alpha  occ. eigenvalues --   -0.52607  -0.52511  -0.52470  -0.52426  -0.51614
 Alpha  occ. eigenvalues --   -0.51595  -0.51327  -0.51309  -0.51265  -0.51226
 Alpha  occ. eigenvalues --   -0.51172  -0.51163  -0.50928  -0.50769  -0.50593
 Alpha  occ. eigenvalues --   -0.50575  -0.50569  -0.49876  -0.49872  -0.49299
 Alpha  occ. eigenvalues --   -0.49276  -0.49245  -0.49215  -0.49164  -0.49078
 Alpha  occ. eigenvalues --   -0.48898  -0.48078  -0.48029  -0.47924  -0.47670
 Alpha  occ. eigenvalues --   -0.47388  -0.47291  -0.47249  -0.46997  -0.46935
 Alpha  occ. eigenvalues --   -0.46815  -0.46550  -0.46494  -0.46485  -0.46190
 Alpha  occ. eigenvalues --   -0.46141  -0.46105  -0.45588  -0.45103  -0.44920
 Alpha  occ. eigenvalues --   -0.44878  -0.44214  -0.44144  -0.44034  -0.43499
 Alpha  occ. eigenvalues --   -0.43283  -0.43231  -0.43117  -0.43103  -0.43071
 Alpha  occ. eigenvalues --   -0.42705  -0.42683  -0.42659  -0.42591  -0.42581
 Alpha  occ. eigenvalues --   -0.42499  -0.42467  -0.42445  -0.42289  -0.42272
 Alpha  occ. eigenvalues --   -0.42256  -0.42027  -0.41916  -0.41861  -0.41842
 Alpha  occ. eigenvalues --   -0.41165  -0.41163  -0.41128  -0.41020  -0.40547
 Alpha  occ. eigenvalues --   -0.40521  -0.40503  -0.40377  -0.39443  -0.39434
 Alpha  occ. eigenvalues --   -0.36975  -0.32542  -0.29174  -0.25133  -0.25107
 Alpha  occ. eigenvalues --   -0.23545
 Alpha virt. eigenvalues --   -0.09475  -0.09255  -0.08531  -0.08470  -0.07051
 Alpha virt. eigenvalues --   -0.07027  -0.06940  -0.04483  -0.04165  -0.04121
 Alpha virt. eigenvalues --   -0.03719  -0.03493  -0.03446  -0.03245  -0.03145
 Alpha virt. eigenvalues --   -0.03107  -0.03078  -0.02218  -0.02167  -0.02133
 Alpha virt. eigenvalues --   -0.01516  -0.01497  -0.01449  -0.01307  -0.01245
 Alpha virt. eigenvalues --   -0.00105  -0.00086  -0.00026   0.01400   0.01459
 Alpha virt. eigenvalues --    0.01907   0.01931   0.02030   0.02132   0.02168
 Alpha virt. eigenvalues --    0.02178   0.02247   0.02293   0.02767   0.02837
 Alpha virt. eigenvalues --    0.02902   0.02978   0.03011   0.04416   0.04526
 Alpha virt. eigenvalues --    0.06757   0.07281   0.07524   0.07546   0.07803
 Alpha virt. eigenvalues --    0.08018   0.08482   0.08530   0.08796   0.09154
 Alpha virt. eigenvalues --    0.09340   0.09387   0.09665   0.09887   0.10255
 Alpha virt. eigenvalues --    0.10331   0.10375   0.10439   0.10482   0.10640
 Alpha virt. eigenvalues --    0.10895   0.11053   0.11062   0.11642   0.11724
 Alpha virt. eigenvalues --    0.12217   0.13122   0.13234   0.13325   0.13595
 Alpha virt. eigenvalues --    0.13756   0.14458   0.14555   0.14680   0.15000
 Alpha virt. eigenvalues --    0.15557   0.16155   0.16337   0.16581   0.16753
 Alpha virt. eigenvalues --    0.16771   0.16909   0.17082   0.17249   0.17720
 Alpha virt. eigenvalues --    0.17910   0.18163   0.18224   0.18374   0.18578
 Alpha virt. eigenvalues --    0.18747   0.19056   0.19301   0.19410   0.19577
 Alpha virt. eigenvalues --    0.19652   0.20191   0.20282   0.20490   0.20588
 Alpha virt. eigenvalues --    0.20758   0.20883   0.20992   0.21367   0.21419
 Alpha virt. eigenvalues --    0.21531   0.21629   0.21718   0.21870   0.22034
 Alpha virt. eigenvalues --    0.22451   0.22734   0.22914   0.23134   0.23218
 Alpha virt. eigenvalues --    0.23467   0.23784   0.23980   0.24278   0.24581
 Alpha virt. eigenvalues --    0.24745   0.25212   0.25430   0.25663   0.25861
 Alpha virt. eigenvalues --    0.26009   0.26207   0.26425   0.26601   0.26667
 Alpha virt. eigenvalues --    0.26964   0.27228   0.27362   0.27443   0.27754
 Alpha virt. eigenvalues --    0.28031   0.28272   0.28322   0.28649   0.28744
 Alpha virt. eigenvalues --    0.29164   0.29491   0.29892   0.30300   0.30509
 Alpha virt. eigenvalues --    0.30726   0.30916   0.31253   0.31484   0.31831
 Alpha virt. eigenvalues --    0.32309   0.34762   0.35209   0.35766   0.36324
 Alpha virt. eigenvalues --    0.36660   0.36927   0.37276   0.38112   0.38407
 Alpha virt. eigenvalues --    0.38649   0.39192   0.39519   0.39646   0.40230
 Alpha virt. eigenvalues --    0.40708   0.40854   0.40966   0.41125   0.41747
 Alpha virt. eigenvalues --    0.42121   0.42479   0.42805   0.43292   0.43545
 Alpha virt. eigenvalues --    0.43699   0.44502   0.44762   0.44893   0.45267
 Alpha virt. eigenvalues --    0.45783   0.46331   0.46551   0.46684   0.47356
 Alpha virt. eigenvalues --    0.47390   0.47646   0.47853   0.48085   0.48220
 Alpha virt. eigenvalues --    0.48422   0.48456   0.48584   0.48693   0.48980
 Alpha virt. eigenvalues --    0.49157   0.49397   0.49448   0.49787   0.49832
 Alpha virt. eigenvalues --    0.50183   0.50507   0.50650   0.50732   0.50980
 Alpha virt. eigenvalues --    0.51620   0.51711   0.51864   0.52221   0.52424
 Alpha virt. eigenvalues --    0.52664   0.52899   0.53012   0.53147   0.53312
 Alpha virt. eigenvalues --    0.53648   0.54038   0.54274   0.54352   0.54508
 Alpha virt. eigenvalues --    0.54946   0.55394   0.55644   0.56351   0.56436
 Alpha virt. eigenvalues --    0.56827   0.57398   0.57771   0.58027   0.58289
 Alpha virt. eigenvalues --    0.58568   0.59078   0.59450   0.60149   0.60772
 Alpha virt. eigenvalues --    0.61357   0.62295   0.62595   0.62769   0.63221
 Alpha virt. eigenvalues --    0.64132   0.65267   0.65680   0.65714   0.65931
 Alpha virt. eigenvalues --    0.66121   0.66546   0.66997   0.67370   0.67429
 Alpha virt. eigenvalues --    0.67828   0.68332   0.69635   0.70231   0.71095
 Alpha virt. eigenvalues --    0.71398   0.71894   0.72134   0.72203   0.72261
 Alpha virt. eigenvalues --    0.72552   0.72709   0.73247   0.73380   0.73978
 Alpha virt. eigenvalues --    0.74603   0.74838   0.75542   0.75664   0.75875
 Alpha virt. eigenvalues --    0.76168   0.76780   0.76897   0.77177   0.77457
 Alpha virt. eigenvalues --    0.77972   0.78472   0.79063   0.79475   0.79714
 Alpha virt. eigenvalues --    0.80270   0.80516   0.80636   0.80721   0.81488
 Alpha virt. eigenvalues --    0.81521   0.81816   0.82017   0.82515   0.83192
 Alpha virt. eigenvalues --    0.84005   0.84228   0.84758   0.85379   0.85854
 Alpha virt. eigenvalues --    0.87186   0.87533   0.87963   0.88050   0.88723
 Alpha virt. eigenvalues --    0.88890   0.89015   0.89494   0.89646   0.90251
 Alpha virt. eigenvalues --    0.90699   0.90957   0.91226   0.91478   0.91739
 Alpha virt. eigenvalues --    0.92837   0.93048   0.93544   0.93882   0.94069
 Alpha virt. eigenvalues --    0.94188   0.94791   0.95645   0.95891   0.96522
 Alpha virt. eigenvalues --    0.96831   0.97056   0.97276   0.97702   0.97798
 Alpha virt. eigenvalues --    0.98137   0.98286   0.98401   0.98542   0.98783
 Alpha virt. eigenvalues --    0.98911   0.99435   0.99920   1.00395   1.00595
 Alpha virt. eigenvalues --    1.00883   1.01273   1.01566   1.01663   1.01716
 Alpha virt. eigenvalues --    1.02120   1.02236   1.02434   1.02458   1.02652
 Alpha virt. eigenvalues --    1.02905   1.03424   1.03518   1.03654   1.03842
 Alpha virt. eigenvalues --    1.04123   1.04196   1.04361   1.04628   1.04700
 Alpha virt. eigenvalues --    1.04978   1.05090   1.05226   1.05425   1.05796
 Alpha virt. eigenvalues --    1.05932   1.06357   1.06498   1.06989   1.07137
 Alpha virt. eigenvalues --    1.07520   1.07827   1.08617   1.09071   1.09260
 Alpha virt. eigenvalues --    1.09420   1.09849   1.09904   1.10117   1.10232
 Alpha virt. eigenvalues --    1.10747   1.10847   1.10958   1.11025   1.11276
 Alpha virt. eigenvalues --    1.11479   1.11675   1.11749   1.12097   1.12479
 Alpha virt. eigenvalues --    1.12792   1.13446   1.13609   1.14141   1.14820
 Alpha virt. eigenvalues --    1.15276   1.15763   1.16129   1.16267   1.16636
 Alpha virt. eigenvalues --    1.17052   1.17651   1.17848   1.18642   1.18663
 Alpha virt. eigenvalues --    1.19503   1.20599   1.20958   1.21164   1.21312
 Alpha virt. eigenvalues --    1.21483   1.21924   1.22149   1.22977   1.23551
 Alpha virt. eigenvalues --    1.25108   1.26057   1.26495   1.26708   1.27064
 Alpha virt. eigenvalues --    1.27548   1.28130   1.28365   1.28526   1.28610
 Alpha virt. eigenvalues --    1.28804   1.29134   1.29166   1.29410   1.29708
 Alpha virt. eigenvalues --    1.30143   1.30225   1.30386   1.30764   1.30829
 Alpha virt. eigenvalues --    1.31188   1.32196   1.32494   1.32996   1.33205
 Alpha virt. eigenvalues --    1.33274   1.33467   1.33656   1.33897   1.34058
 Alpha virt. eigenvalues --    1.34301   1.34348   1.34564   1.34798   1.34901
 Alpha virt. eigenvalues --    1.34938   1.35226   1.35619   1.35790   1.36102
 Alpha virt. eigenvalues --    1.36166   1.36570   1.36743   1.36835   1.36997
 Alpha virt. eigenvalues --    1.37173   1.37310   1.37574   1.37902   1.37919
 Alpha virt. eigenvalues --    1.38189   1.38505   1.38710   1.38967   1.39091
 Alpha virt. eigenvalues --    1.39357   1.39518   1.39614   1.39788   1.40201
 Alpha virt. eigenvalues --    1.40331   1.40476   1.40548   1.40719   1.40957
 Alpha virt. eigenvalues --    1.41097   1.41245   1.41487   1.41908   1.42013
 Alpha virt. eigenvalues --    1.42580   1.43053   1.43292   1.43439   1.43486
 Alpha virt. eigenvalues --    1.43908   1.44272   1.44559   1.44675   1.45669
 Alpha virt. eigenvalues --    1.46312   1.47155   1.47584   1.47702   1.48091
 Alpha virt. eigenvalues --    1.48241   1.48653   1.49193   1.49590   1.49889
 Alpha virt. eigenvalues --    1.50491   1.51010   1.51317   1.51908   1.53306
 Alpha virt. eigenvalues --    1.53707   1.55362   1.55784   1.55800   1.56013
 Alpha virt. eigenvalues --    1.56180   1.56359   1.56667   1.56763   1.57154
 Alpha virt. eigenvalues --    1.57186   1.58025   1.58255   1.59234   1.59323
 Alpha virt. eigenvalues --    1.59838   1.60242   1.60357   1.60472   1.60549
 Alpha virt. eigenvalues --    1.60699   1.61203   1.61908   1.62213   1.62410
 Alpha virt. eigenvalues --    1.64093   1.64438   1.65122   1.65752   1.66775
 Alpha virt. eigenvalues --    1.67484   1.67925   1.69876   1.70530   1.70872
 Alpha virt. eigenvalues --    1.71284   1.71653   1.72341   1.73252   1.74155
 Alpha virt. eigenvalues --    1.75263   1.75450   1.75563   1.75938   1.76756
 Alpha virt. eigenvalues --    1.76935   1.76990   1.77610   1.77852   1.78726
 Alpha virt. eigenvalues --    1.78877   1.79372   1.79915   1.80493   1.80752
 Alpha virt. eigenvalues --    1.81179   1.81285   1.82094   1.82292   1.82940
 Alpha virt. eigenvalues --    1.83032   1.83260   1.83950   1.84183   1.84532
 Alpha virt. eigenvalues --    1.85191   1.85521   1.85753   1.86117   1.86331
 Alpha virt. eigenvalues --    1.86547   1.87159   1.87423   1.88158   1.88666
 Alpha virt. eigenvalues --    1.89369   1.89930   1.90164   1.90347   1.90377
 Alpha virt. eigenvalues --    1.90784   1.90970   1.91311   1.92345   1.93280
 Alpha virt. eigenvalues --    1.94875   1.95294   1.95478   1.95688   1.96041
 Alpha virt. eigenvalues --    1.98141   1.99285   1.99482   1.99550   2.04173
 Alpha virt. eigenvalues --    2.06276   2.07261   2.08169   2.08564   2.08747
 Alpha virt. eigenvalues --    2.09051   2.09133   2.09534   2.10188   2.11033
 Alpha virt. eigenvalues --    2.11531   2.11989   2.12736   2.14763   2.15632
 Alpha virt. eigenvalues --    2.15989   2.16853   2.17266   2.17466   2.17808
 Alpha virt. eigenvalues --    2.20034   2.20442   2.20517   2.20718   2.20893
 Alpha virt. eigenvalues --    2.21186   2.22231   2.24314   2.25364   2.26102
 Alpha virt. eigenvalues --    2.26426   2.26799   2.27367   2.28492   2.28951
 Alpha virt. eigenvalues --    2.29165   2.29878   2.30424   2.33492   2.35692
 Alpha virt. eigenvalues --    2.36776   2.40252   2.40993   2.41054   2.43628
 Alpha virt. eigenvalues --    2.44276   2.50429   2.51622   2.57251   2.64721
 Alpha virt. eigenvalues --    2.64782   2.64919   2.65455   2.65975   2.66591
 Alpha virt. eigenvalues --    2.66772   2.66828   2.66938   2.66958   2.67054
 Alpha virt. eigenvalues --    2.67095   2.67154   2.67323   2.67350   2.67409
 Alpha virt. eigenvalues --    2.67642   2.67681   2.67794   2.67839   2.67897
 Alpha virt. eigenvalues --    2.68614   2.68906   2.69223   2.69378   2.70003
 Alpha virt. eigenvalues --    2.70186   2.70291   2.70644   2.70716   2.70822
 Alpha virt. eigenvalues --    2.70991   2.71368   2.71426   2.71525   2.71589
 Alpha virt. eigenvalues --    2.71651   2.71910   2.72700   2.72924   2.72972
 Alpha virt. eigenvalues --    2.73107   2.73200   2.73256   2.73334   2.73372
 Alpha virt. eigenvalues --    2.73499   2.73757   2.73878   2.73902   2.73988
 Alpha virt. eigenvalues --    2.74050   2.74144   2.74314   2.74526   2.74694
 Alpha virt. eigenvalues --    2.74757   2.74902   2.75048   2.75565   2.75950
 Alpha virt. eigenvalues --    2.76158   2.76300   2.76452   2.76706   2.76894
 Alpha virt. eigenvalues --    2.77072   2.77193   2.77203   2.78434   2.78580
 Alpha virt. eigenvalues --    2.78631   2.78904   2.79793   2.80064   2.80159
 Alpha virt. eigenvalues --    2.81090   2.81820   2.81832   2.82130   2.82320
 Alpha virt. eigenvalues --    2.82355   2.82718   2.83103   2.83267   2.83655
 Alpha virt. eigenvalues --    2.83772   2.83923   2.83995   2.84245   2.85104
 Alpha virt. eigenvalues --    2.85557   2.86127   2.86203   2.86311   2.86365
 Alpha virt. eigenvalues --    2.86606   2.86794   2.86916   2.88236   2.88531
 Alpha virt. eigenvalues --    2.88689   2.89095   2.89674   2.89741   2.89835
 Alpha virt. eigenvalues --    2.89932   2.90014   2.90099   2.90584   2.90654
 Alpha virt. eigenvalues --    2.90774   2.91754   2.91899   2.92060   2.92083
 Alpha virt. eigenvalues --    2.92277   2.92501   2.92771   2.92911   2.93052
 Alpha virt. eigenvalues --    2.93362   2.93514   2.93664   2.93992   2.94122
 Alpha virt. eigenvalues --    2.94182   2.95002   2.95174   2.95384   2.95731
 Alpha virt. eigenvalues --    2.95819   2.95850   2.96393   2.96586   2.96650
 Alpha virt. eigenvalues --    2.96739   2.96927   2.96969   2.97202   2.97406
 Alpha virt. eigenvalues --    2.97586   2.97724   2.97923   2.98326   2.99146
 Alpha virt. eigenvalues --    2.99317   2.99399   2.99650   2.99722   3.00036
 Alpha virt. eigenvalues --    3.00091   3.00406   3.01026   3.01367   3.01420
 Alpha virt. eigenvalues --    3.02718   3.03134   3.03360   3.03711   3.05199
 Alpha virt. eigenvalues --    3.06550   3.06757   3.07193   3.11043   3.11662
 Alpha virt. eigenvalues --    3.11789   3.11913   3.12220   3.12687   3.13736
 Alpha virt. eigenvalues --    3.13870   3.14031   3.16791   3.19751   3.21773
 Alpha virt. eigenvalues --    3.21858   3.23925   3.32606   3.41190   3.41552
 Alpha virt. eigenvalues --    3.42190   3.43232   3.44959   3.44969   3.45912
 Alpha virt. eigenvalues --    3.46338   3.46415   3.47230   3.47502   3.47862
 Alpha virt. eigenvalues --    3.48199   3.51214   3.51812   3.52380   3.53588
 Alpha virt. eigenvalues --    3.53913   3.54338   3.54666   3.54796   3.55008
 Alpha virt. eigenvalues --    3.55255   3.55376   3.55565   3.56664   3.57473
 Alpha virt. eigenvalues --    3.57675   3.58529   3.59485   3.59625   3.60319
 Alpha virt. eigenvalues --    3.60629   3.61259   3.61538   3.62107   3.62413
 Alpha virt. eigenvalues --    3.69466   3.74769  68.64147  68.65294  68.66270
 Alpha virt. eigenvalues --   68.68361  68.72543  68.73580  68.81662  68.82641
 Alpha virt. eigenvalues --   68.83388  68.85568  68.86752  68.88065 576.22587
 Alpha virt. eigenvalues --  576.23709 576.24664 576.26709 576.30897 576.31921
 Alpha virt. eigenvalues --  576.39854 576.40810 576.41536 576.43622 576.44777
 Alpha virt. eigenvalues --  576.46082
          Condensed to atoms (all electrons):
 Mulliken charges:
               1
     1  Cl  -0.893867
     2  C   -0.080090
     3  C    0.048839
     4  C   -0.079282
     5  C   -0.033750
     6  C   -0.033908
     7  C   -0.049772
     8  H    0.030317
     9  H    0.029242
    10  H    0.041055
    11  H    0.036867
    12  H    0.039916
    13  C   -0.123980
    14  C    0.023559
    15  H    0.021027
    16  H    0.036629
    17  H    0.024518
    18  O   -0.663909
    19  O   -0.663578
    20  O   -0.655401
    21  O   -0.664320
    22  W    1.735441
    23  W    1.677910
    24  W    1.687921
    25  W    1.698157
    26  W    1.677965
    27  W    1.729507
    28  W    1.621021
    29  W    1.688970
    30  O   -0.320163
    31  O   -0.365778
    32  O   -0.367877
    33  O   -0.360237
    34  O   -0.665033
    35  O   -0.671390
    36  O   -0.661840
    37  O   -0.664761
    38  O   -0.368119
    39  O   -0.364949
    40  O   -0.297395
    41  O   -0.365164
    42  O   -0.670779
    43  O   -0.664345
    44  O   -0.661339
    45  O   -0.666122
    46  O   -0.368503
    47  O   -0.320467
    48  O   -0.362079
    49  O   -0.362194
    50  W    1.675581
    51  W    1.681698
    52  W    1.685132
    53  W    1.687621
    54  O   -0.726412
    55  O   -0.709154
    56  O   -0.726621
    57  O   -0.724237
    58  O   -0.707005
    59  O   -0.727861
    60  O   -0.726275
    61  O   -0.721934
    62  O   -0.725793
    63  O   -0.708402
    64  O   -0.725712
    65  O   -0.727062
    66  O   -0.802614
    67  O   -0.801809
    68  O   -0.798848
    69  O   -0.810547
    70  K    0.863332
    71  K    0.862951
    72  K    0.860453
    73  V    1.195051
 Sum of Mulliken charges =  -1.00000
 Mulliken charges with hydrogens summed into heavy atoms:
               1
     1  Cl  -0.893867
     2  C   -0.049774
     3  C    0.048839
     4  C   -0.050040
     5  C    0.007304
     6  C    0.002960
     7  C   -0.009856
    13  C   -0.102953
    14  C    0.084706
    18  O   -0.663909
    19  O   -0.663578
    20  O   -0.655401
    21  O   -0.664320
    22  W    1.735441
    23  W    1.677910
    24  W    1.687921
    25  W    1.698157
    26  W    1.677965
    27  W    1.729507
    28  W    1.621021
    29  W    1.688970
    30  O   -0.320163
    31  O   -0.365778
    32  O   -0.367877
    33  O   -0.360237
    34  O   -0.665033
    35  O   -0.671390
    36  O   -0.661840
    37  O   -0.664761
    38  O   -0.368119
    39  O   -0.364949
    40  O   -0.297395
    41  O   -0.365164
    42  O   -0.670779
    43  O   -0.664345
    44  O   -0.661339
    45  O   -0.666122
    46  O   -0.368503
    47  O   -0.320467
    48  O   -0.362079
    49  O   -0.362194
    50  W    1.675581
    51  W    1.681698
    52  W    1.685132
    53  W    1.687621
    54  O   -0.726412
    55  O   -0.709154
    56  O   -0.726621
    57  O   -0.724237
    58  O   -0.707005
    59  O   -0.727861
    60  O   -0.726275
    61  O   -0.721934
    62  O   -0.725793
    63  O   -0.708402
    64  O   -0.725712
    65  O   -0.727062
    66  O   -0.802614
    67  O   -0.801809
    68  O   -0.798848
    69  O   -0.810547
    70  K    0.863332
    71  K    0.862951
    72  K    0.860453
    73  V    1.195051
 Electronic spatial extent (au):  <R**2>=         317264.3653
 Charge=             -1.0000 electrons
 Dipole moment (field-independent basis, Debye):
    X=             50.2559    Y=            -51.1403    Z=            -38.7529  Tot=             81.5032
 Quadrupole moment (field-independent basis, Debye-Ang):
   XX=          -1040.9325   YY=           -889.2248   ZZ=           -915.5262
   XY=            446.6162   XZ=            449.7276   YZ=           -476.9923
 Traceless Quadrupole moment (field-independent basis, Debye-Ang):
   XX=            -92.3713   YY=             59.3364   ZZ=             33.0350
   XY=            446.6162   XZ=            449.7276   YZ=           -476.9923
 Octapole moment (field-independent basis, Debye-Ang**2):
  XXX=          13194.9175  YYY=          -1084.3518  ZZZ=         -19159.0467  XYY=           6045.6463
  XXY=          -3530.0981  XXZ=          -9277.1272  XZZ=           7245.7329  YZZ=          -4163.4348
  YYZ=          -9049.2616  XYZ=           4720.9630
 Hexadecapole moment (field-independent basis, Debye-Ang**3):
 XXXX=        -155714.5553 YYYY=         -54126.7829 ZZZZ=        -346526.8176 XXXY=          35289.3565
 XXXZ=         120315.7648 YYYX=          20684.0786 YYYZ=         -12963.1939 ZZZX=         126557.3547
 ZZZY=         -35511.5340 XXYY=         -55107.7598 XXZZ=        -106242.2949 YYZZ=         -99926.2676
 XXYZ=         -41000.9405 YYXZ=          61275.1421 ZZXY=          49592.5437
 N-N= 2.097677702919D+04 E-N=-5.903793465906D+04  KE= 6.765145631588D+03
   1 Symmetry operations used in ECPInt.
 ECPInt:  NShTT=  127765 NPrTT=  468030 LenC2=   96522 LenP2D=  220881.
 LDataN:  DoStor=T MaxTD1= 9 Len=  602
 D1PCM: PCM CHGder 1st derivatives, ID1Alg=3 FixD1E=F DoIter=F DoCFld=F I1PDM=0.
 Calling FoFJK, ICntrl=      2127 FMM=T ISym2X=0 I1Cent= 0 IOpClX= 0 NMat=1 NMatS=1 NMatT=0.
 Defaulting to unpruned grid for atomic number  74.
 Defaulting to unpruned grid for atomic number  74.
 Defaulting to unpruned grid for atomic number  74.
 Defaulting to unpruned grid for atomic number  74.
 Defaulting to unpruned grid for atomic number  74.
 Defaulting to unpruned grid for atomic number  74.
 Defaulting to unpruned grid for atomic number  74.
 Defaulting to unpruned grid for atomic number  74.
 Defaulting to unpruned grid for atomic number  74.
 Defaulting to unpruned grid for atomic number  74.
 Defaulting to unpruned grid for atomic number  74.
 Defaulting to unpruned grid for atomic number  74.
 Defaulting to unpruned grid for atomic number  74.
 Defaulting to unpruned grid for atomic number  74.
 Defaulting to unpruned grid for atomic number  74.
 Defaulting to unpruned grid for atomic number  74.
 Defaulting to unpruned grid for atomic number  74.
 Defaulting to unpruned grid for atomic number  74.
 Defaulting to unpruned grid for atomic number  74.
 Defaulting to unpruned grid for atomic number  74.
 Defaulting to unpruned grid for atomic number  74.
 Defaulting to unpruned grid for atomic number  74.
 Defaulting to unpruned grid for atomic number  74.
 Defaulting to unpruned grid for atomic number  74.
 Defaulting to unpruned grid for atomic number  74.
 Defaulting to unpruned grid for atomic number  74.
 Defaulting to unpruned grid for atomic number  74.
 Defaulting to unpruned grid for atomic number  74.
 Defaulting to unpruned grid for atomic number  74.
 Defaulting to unpruned grid for atomic number  74.
 Defaulting to unpruned grid for atomic number  74.
 Defaulting to unpruned grid for atomic number  74.
 Defaulting to unpruned grid for atomic number  74.
 Defaulting to unpruned grid for atomic number  74.
 Defaulting to unpruned grid for atomic number  74.
 Defaulting to unpruned grid for atomic number  74.
 Defaulting to unpruned grid for atomic number  74.
 Defaulting to unpruned grid for atomic number  74.
 Defaulting to unpruned grid for atomic number  74.
 Defaulting to unpruned grid for atomic number  74.
 Defaulting to unpruned grid for atomic number  74.
 Defaulting to unpruned grid for atomic number  74.
 Defaulting to unpruned grid for atomic number  74.
 Defaulting to unpruned grid for atomic number  74.
 Defaulting to unpruned grid for atomic number  74.
 Defaulting to unpruned grid for atomic number  74.
 Defaulting to unpruned grid for atomic number  74.
 Defaulting to unpruned grid for atomic number  74.
 Defaulting to unpruned grid for atomic number  74.
 Defaulting to unpruned grid for atomic number  74.
 Defaulting to unpruned grid for atomic number  74.
 Defaulting to unpruned grid for atomic number  74.
 Defaulting to unpruned grid for atomic number  74.
 Defaulting to unpruned grid for atomic number  74.
 Defaulting to unpruned grid for atomic number  74.
 Defaulting to unpruned grid for atomic number  74.
 -------------------------------------------------------------------
 Center     Atomic                   Forces (Hartrees/Bohr)
 Number     Number              X              Y              Z
 -------------------------------------------------------------------
      1       17          -0.003175161    0.008152130    0.002459450
      2        6          -0.001552854   -0.000708499   -0.001947958
      3        6          -0.000858585   -0.002014872    0.003525003
      4        6           0.001368126    0.001993813    0.000528602
      5        6           0.000825312   -0.000073096    0.001372395
      6        6           0.000055260   -0.000318589    0.000783670
      7        6          -0.001024942   -0.001257539    0.000424280
      8        1          -0.000242819    0.000354037   -0.000164633
      9        1          -0.000366942    0.000061425   -0.000032784
     10        1          -0.000203828   -0.000176202    0.000217963
     11        1           0.000328146   -0.000248459    0.000011596
     12        1           0.000094005    0.000178162    0.000152384
     13        6           0.007675689    0.010998243   -0.007611548
     14        6          -0.001534400   -0.017520608    0.000109144
     15        1          -0.001043994    0.000371876    0.000071883
     16        1          -0.000121923    0.000748861    0.000624359
     17        1          -0.001470365    0.000586053   -0.000589850
     18        8          -0.003348947    0.000504093    0.000799486
     19        8           0.003237351   -0.000792560    0.000985374
     20        8           0.002628689   -0.002965865   -0.000526086
     21        8          -0.002396591    0.002311436   -0.000996878
     22       74           0.001700020    0.010495333   -0.009708049
     23       74          -0.002445540   -0.010241037   -0.010014235
     24       74           0.006645364    0.008501827    0.009899235
     25       74          -0.007237812   -0.007346423    0.010218968
     26       74           0.008107448   -0.007556465   -0.010785917
     27       74          -0.008150957    0.008132341   -0.010595974
     28       74          -0.011606990    0.003059921    0.010853890
     29       74           0.010967420   -0.001814301    0.010821035
     30        8          -0.000531113   -0.002681348    0.003365939
     31        8           0.000252608    0.003039065    0.003151859
     32        8          -0.002285293   -0.001977731   -0.003083602
     33        8           0.002360055    0.001901933   -0.003322159
     34        8          -0.001146750   -0.000700172    0.003196573
     35        8           0.001392176    0.000111396    0.003411038
     36        8           0.000743132   -0.001501566   -0.003243680
     37        8          -0.000330668    0.001253370   -0.003351605
     38        8          -0.004393057   -0.001832765   -0.001267874
     39        8           0.004524708    0.001785794   -0.001389505
     40        8           0.002078763   -0.005983452    0.000876350
     41        8          -0.001054128    0.004727551    0.001278766
     42        8          -0.001971537   -0.002721401    0.001360343
     43        8           0.002404232    0.002492661    0.001083131
     44        8          -0.000317833   -0.003613100   -0.000640162
     45        8           0.000869865    0.003320382   -0.001337640
     46        8          -0.002634366    0.002786655    0.003079542
     47        8           0.002815148   -0.002396521    0.003243021
     48        8           0.004145996   -0.000526204   -0.003495232
     49        8          -0.003829047    0.000427285   -0.003226953
     50       74           0.014351191    0.004800548    0.003019715
     51       74          -0.014782627   -0.003883136    0.003335990
     52       74          -0.005666689    0.015647388   -0.003231362
     53       74           0.004767994   -0.014320539   -0.002854110
     54        8          -0.000635732    0.001462823    0.002041218
     55        8           0.000716566   -0.001513773    0.001962309
     56        8           0.001712635   -0.000175261   -0.002091836
     57        8          -0.001313230   -0.000528095   -0.002027248
     58        8           0.000294025   -0.002436641    0.001133720
     59        8           0.000383571    0.002172075    0.001396232
     60        8          -0.001377352   -0.001652692   -0.001493925
     61        8           0.001636419    0.001377390   -0.001395041
     62        8          -0.001258499    0.001970524    0.000728656
     63        8           0.001105167   -0.002519704    0.000476105
     64        8           0.002312684   -0.000219367   -0.000963916
     65        8          -0.002361599   -0.000243414   -0.000798164
     66        8          -0.026663401   -0.004876558    0.017022834
     67        8           0.027024064    0.005605934    0.016956678
     68        8           0.011339332   -0.025660561   -0.017136393
     69        8          -0.011146231    0.024495735   -0.017365572
     70       19           0.000196495   -0.000978450   -0.000649296
     71       19           0.000787233    0.000087838    0.000645909
     72       19          -0.000956345   -0.000354353    0.000570036
     73       23          -0.000408747    0.000415423    0.000144509
 -------------------------------------------------------------------
 Cartesian Forces:  Max     0.027024064 RMS     0.006129090

 GradGradGradGradGradGradGradGradGradGradGradGradGradGradGradGradGradGrad
 Berny optimization.
 Search for a local minimum.
 Step number   1 out of a maximum of    2
 All quantities printed in internal units (Hartrees-Bohrs-Radians)
 Second derivative matrix not updated -- first step.
 ITU=  0
     Eigenvalues ---    0.00000   0.00000   0.00000   0.00010   0.00093
     Eigenvalues ---    0.00095   0.00256   0.00543   0.00641   0.01642
     Eigenvalues ---    0.01951   0.02903   0.02928   0.03212   0.03431
     Eigenvalues ---    0.03453   0.03724   0.03734   0.04160   0.04498
     Eigenvalues ---    0.04605   0.04616   0.04647   0.04844   0.04856
     Eigenvalues ---    0.04991   0.05360   0.05576   0.05606   0.06374
     Eigenvalues ---    0.06412   0.06532   0.06783   0.06860   0.07046
     Eigenvalues ---    0.07301   0.07395   0.07601   0.08369   0.08392
     Eigenvalues ---    0.08723   0.08761   0.08908   0.08942   0.09740
     Eigenvalues ---    0.09973   0.10119   0.10424   0.10471   0.10557
     Eigenvalues ---    0.10829   0.10900   0.11588   0.11692   0.12064
     Eigenvalues ---    0.12096   0.12183   0.12543   0.12554   0.12682
     Eigenvalues ---    0.12711   0.12806   0.12838   0.13101   0.13153
     Eigenvalues ---    0.13821   0.14000   0.14339   0.14571   0.14751
     Eigenvalues ---    0.16922   0.16956   0.17112   0.17152   0.17590
     Eigenvalues ---    0.17687   0.18582   0.19868   0.20019   0.20267
     Eigenvalues ---    0.20927   0.21064   0.22000   0.22103   0.22177
     Eigenvalues ---    0.22616   0.23180   0.23416   0.23996   0.24027
     Eigenvalues ---    0.24635   0.24780   0.24972   0.25590   0.26240
     Eigenvalues ---    0.26374   0.26594   0.27635   0.27731   0.27976
     Eigenvalues ---    0.28332   0.28361   0.28899   0.29642   0.29940
     Eigenvalues ---    0.30549   0.30660   0.30666   0.30745   0.30787
     Eigenvalues ---    0.30984   0.31230   0.31441   0.31587   0.32389
     Eigenvalues ---    0.32558   0.32605   0.32754   0.32914   0.33455
     Eigenvalues ---    0.33561   0.35104   0.35591   0.35902   0.36916
     Eigenvalues ---    0.37499   0.37665   0.37843   0.38346   0.38628
     Eigenvalues ---    0.38963   0.39247   0.40235   0.40306   0.41217
     Eigenvalues ---    0.42300   0.42340   0.43586   0.44265   0.44852
     Eigenvalues ---    0.45389   0.45636   0.45991   0.48096   0.48414
     Eigenvalues ---    0.48625   0.48960   0.49031   0.49675   0.49778
     Eigenvalues ---    0.50116   0.50890   0.51368   0.52046   0.52475
     Eigenvalues ---    0.53191   0.53954   0.56302   0.58594   0.64491
     Eigenvalues ---    0.67521   0.76670   0.81514   0.82740   0.96878
     Eigenvalues ---    0.97262   0.98766   0.99345   1.01624   1.04448
     Eigenvalues ---    1.07379   1.11156   1.11686   1.12269   1.15513
     Eigenvalues ---    1.18840   1.19321   1.20446   1.22171   1.22608
     Eigenvalues ---    1.22799   1.26220   1.26626   1.26827   1.27160
     Eigenvalues ---    1.27718   1.29281   1.29595   1.45233   1.45605
     Eigenvalues ---    1.45778   1.48162   1.51451   1.51841   1.52145
     Eigenvalues ---    1.52737   1.55781   1.55844   1.57228   1.58611
     Eigenvalues ---    1.58711   1.59382   1.61802   1.64360   1.74755
     Eigenvalues ---    1.85478   1.89050   1.94139   1.94811   1.95351
     Eigenvalues ---    2.05306   2.11231   3.44939
 Eigenvalue     1 is   0.00D+00 Eigenvector:
                          Y16       Y15       Y14       Y17       Y13
   1                    0.17432   0.17432   0.17432   0.17432   0.17432
                          Y9        Y3        Y8        Y4        Y2
   1                    0.17432   0.17432   0.17432   0.17432   0.17432
 Eigenvalue     2 is   3.07D-07 Eigenvector:
                          Y16       X16       X11       Y11       Y15
   1                    0.31846  -0.27133   0.26556  -0.24564   0.23523
                          Y14       X14       Y17       Y13       X6
   1                    0.23248  -0.19224   0.18972   0.18613   0.18488
 Eigenvalue     3 is   2.82D-06 Eigenvector:
                          X9        X10       Y12       X12       Y8
   1                    0.33782   0.29274   0.27161  -0.25207   0.25127
                          Y9        X15       Y10       X17       X8
   1                   -0.24445   0.23150  -0.22370  -0.20944  -0.20807
 Quadratic step=2.922D+01 exceeds max=3.000D-01 adjusted using Lamda=-1.282D-02.
 Angle between NR and scaled steps=  40.02 degrees.
 Angle between quadratic step and forces=  65.49 degrees.
 Linear search not attempted -- first point.
 B after Tr=    -0.000363    0.006771    0.001370
         Rot=    1.000000   -0.000133    0.000013    0.000049 Ang=  -0.02 deg.
 Variable       Old X    -DE/DX   Delta X   Delta X   Delta X     New X
                                 (Linear)    (Quad)   (Total)
    X1      -18.22558  -0.00318   0.00000  -0.00312  -0.00247 -18.22805
    Y1       15.63206   0.00815   0.00000   0.00817   0.01143  15.64350
    Z1       19.92386   0.00246   0.00000   0.00257   0.00761  19.93147
    X2      -15.77268  -0.00155   0.00000  -0.01016  -0.01034 -15.78303
    Y2        8.03578  -0.00071   0.00000  -0.01292  -0.01073   8.02505
    Z2       23.07973  -0.00195   0.00000  -0.01016  -0.00707  23.07266
    X3      -17.27497  -0.00086   0.00000   0.00155   0.00137 -17.27360
    Y3        7.43099  -0.00201   0.00000  -0.02812  -0.02523   7.40576
    Z3       20.96943   0.00353   0.00000  -0.01058  -0.00769  20.96174
    X4      -19.00036   0.00137   0.00000  -0.01037  -0.01075 -19.01111
    Y4        5.41977   0.00199   0.00000  -0.00894  -0.00594   5.41383
    Z4       21.19432   0.00053   0.00000   0.01464   0.01695  21.21127
    X5      -19.28693   0.00083   0.00000  -0.00558  -0.00615 -19.29308
    Y5        4.12429  -0.00007   0.00000  -0.00290  -0.00047   4.12381
    Z5       23.46300   0.00137   0.00000   0.02156   0.02352  23.48652
    X6      -17.82987   0.00006   0.00000   0.00101   0.00044 -17.82943
    Y6        4.79064  -0.00032   0.00000  -0.00461  -0.00288   4.78776
    Z6       25.55803   0.00078   0.00000   0.01568   0.01785  25.57589
    X7      -16.05144  -0.00102   0.00000  -0.00730  -0.00766 -16.05910
    Y7        6.72965  -0.00126   0.00000  -0.00104   0.00057   6.73022
    Z7       25.34568   0.00042   0.00000   0.00070   0.00344  25.34912
    X8      -14.36562  -0.00024   0.00000  -0.01406  -0.01409 -14.37970
    Y8        9.54069   0.00035   0.00000  -0.00858  -0.00649   9.53420
    Z8       22.94905  -0.00016   0.00000  -0.01629  -0.01277  22.93629
    X9      -20.14385  -0.00037   0.00000  -0.01810  -0.01850 -20.16235
    Y9        4.89368   0.00006   0.00000  -0.01089  -0.00734   4.88633
    Z9       19.55524  -0.00003   0.00000   0.01983   0.02197  19.57721
   X10      -20.65072  -0.00020   0.00000  -0.00843  -0.00916 -20.65987
   Y10        2.57983  -0.00018   0.00000  -0.00053   0.00199   2.58182
   Z10       23.59747   0.00022   0.00000   0.02710   0.02862  23.62609
   X11      -18.05738   0.00033   0.00000   0.01234   0.01164 -18.04575
   Y11        3.78192  -0.00025   0.00000  -0.00527  -0.00399   3.77793
   Z11       27.34424   0.00001   0.00000   0.01643   0.01833  27.36257
   X12      -14.87376   0.00009   0.00000  -0.00511  -0.00547 -14.87923
   Y12        7.22916   0.00018   0.00000   0.01092   0.01198   7.24114
   Z12       26.96723   0.00015   0.00000  -0.00354  -0.00064  26.96659
   X13      -17.16258   0.00768   0.00000   0.03859   0.03860 -17.12399
   Y13        8.83267   0.01100   0.00000  -0.06728  -0.06376   8.76891
   Z13       18.58739  -0.00761   0.00000  -0.04510  -0.04185  18.54554
   X14      -15.90689  -0.00153   0.00000   0.07328   0.07351 -15.83338
   Y14       11.01401  -0.01752   0.00000  -0.11799  -0.11448  10.89952
   Z14       18.17690   0.00011   0.00000  -0.05754  -0.05369  18.12321
   X15      -18.26639  -0.00104   0.00000  -0.00075  -0.00078 -18.26717
   Y15        8.01933   0.00037   0.00000  -0.04472  -0.04068   7.97866
   Z15       17.03549   0.00007   0.00000  -0.02826  -0.02525  17.01024
   X16      -15.93981  -0.00012   0.00000   0.05975   0.06012 -15.87969
   Y16       11.90438   0.00075   0.00000  -0.09061  -0.08660  11.81778
   Z16       16.31758   0.00062   0.00000  -0.04343  -0.03934  16.27824
   X17      -14.72575  -0.00147   0.00000   0.03995   0.04023 -14.68552
   Y17       11.91018   0.00059   0.00000  -0.09351  -0.09049  11.81969
   Z17       19.60560  -0.00059   0.00000  -0.04667  -0.04255  19.56305
   X18       -1.84279  -0.00335   0.00000  -0.01958  -0.02065  -1.86344
   Y18       -3.40784   0.00050   0.00000   0.00252   0.00573  -3.40211
   Z18       14.10687   0.00080   0.00000   0.00757   0.00799  14.11486
   X19      -15.85079   0.00324   0.00000   0.01404   0.01307 -15.83772
   Y19       -2.51750  -0.00079   0.00000   0.00857   0.01314  -2.50436
   Z19       14.10111   0.00099   0.00000   0.01115   0.01144  14.11255
   X20      -13.26294   0.00263   0.00000   0.01056   0.00993 -13.25301
   Y20        2.54431  -0.00297   0.00000  -0.01137  -0.00856   2.53575
   Z20       19.79300  -0.00053   0.00000  -0.00228  -0.00058  19.79242
   X21       -4.41170  -0.00240   0.00000  -0.01066  -0.01235  -4.42405
   Y21       -8.31145   0.00231   0.00000   0.01742   0.01933  -8.29211
   Z21       19.94616  -0.00100   0.00000  -0.01076  -0.01171  19.93445
   X22       -6.42304   0.00170   0.00000  -0.00729  -0.00784  -6.43088
   Y22        1.30764   0.01050   0.00000   0.02121   0.02536   1.33301
   Z22       12.24407  -0.00971   0.00000  -0.00449  -0.00294  12.24113
   X23      -11.31709  -0.00245   0.00000   0.00359   0.00220 -11.31489
   Y23       -7.22186  -0.01024   0.00000  -0.00492  -0.00033  -7.22219
   Z23       12.39352  -0.01001   0.00000  -0.00533  -0.00618  12.38734
   X24       -6.81849   0.00665   0.00000   0.01538   0.01461  -6.80387
   Y24        1.64252   0.00850   0.00000   0.00290   0.00461   1.64713
   Z24       21.57150   0.00990   0.00000   0.00931   0.01094  21.58244
   X25      -10.88787  -0.00724   0.00000  -0.01657  -0.01821 -10.90609
   Y25       -7.30754  -0.00735   0.00000   0.00316   0.00524  -7.30230
   Z25       21.69875   0.01022   0.00000   0.00592   0.00507  21.70382
   X26       -4.59215   0.00811   0.00000  -0.00600  -0.00716  -4.59930
   Y26       -4.89806  -0.00756   0.00000  -0.00524  -0.00122  -4.89928
   Z26       12.09681  -0.01079   0.00000  -0.00860  -0.00865  12.08816
   X27      -13.10447  -0.00815   0.00000  -0.00191  -0.00268 -13.10715
   Y27       -1.01144   0.00813   0.00000   0.02007   0.02493  -0.98651
   Z27       12.03531  -0.01060   0.00000  -0.00691  -0.00615  12.02916
   X28      -12.87531  -0.01161   0.00000  -0.00803  -0.00901 -12.88432
   Y28       -0.47530   0.00306   0.00000  -0.00415  -0.00192  -0.47722
   Z28       21.85021   0.01085   0.00000   0.01102   0.01192  21.86213
   X29       -4.80737   0.01097   0.00000   0.00721   0.00577  -4.80160
   Y29       -5.17876  -0.00181   0.00000   0.01034   0.01176  -5.16699
   Z29       21.92849   0.01082   0.00000   0.00706   0.00694  21.93542
   X30       -5.97953  -0.00053   0.00000   0.01061   0.01034  -5.96920
   Y30        3.54235  -0.00268   0.00000   0.01440   0.01910   3.56146
   Z30       10.01181   0.00337   0.00000   0.00375   0.00591  10.01772
   X31      -11.56983   0.00025   0.00000  -0.01050  -0.01207 -11.58189
   Y31       -9.58498   0.00304   0.00000   0.00196   0.00715  -9.57783
   Z31       10.23539   0.00315   0.00000   0.00027  -0.00120  10.23419
   X32       -5.06344  -0.00229   0.00000   0.00295   0.00228  -5.06116
   Y32        3.22910  -0.00198   0.00000   0.00849   0.00945   3.23856
   Z32       23.74380  -0.00308   0.00000   0.00377   0.00586  23.74966
   X33      -12.62538   0.00236   0.00000  -0.00348  -0.00533 -12.63071
   Y33       -8.82103   0.00190   0.00000  -0.00436  -0.00271  -8.82374
   Z33       23.93270  -0.00332   0.00000  -0.00042  -0.00172  23.93098
   X34       -5.02455  -0.00115   0.00000  -0.01464  -0.01545  -5.04000
   Y34       -1.73287  -0.00070   0.00000   0.00409   0.00855  -1.72432
   Z34       10.56152   0.00320   0.00000   0.01111   0.01189  10.57342
   X35      -12.66022   0.00139   0.00000   0.00845   0.00739 -12.65283
   Y35       -4.28879   0.00011   0.00000   0.00980   0.01499  -4.27380
   Z35       10.62080   0.00341   0.00000   0.01344   0.01334  10.63414
   X36      -10.02197   0.00074   0.00000   0.00715   0.00628 -10.01569
   Y36        1.03808  -0.00150   0.00000  -0.01112  -0.00957   1.02851
   Z36       23.35502  -0.00324   0.00000  -0.00642  -0.00504  23.34998
   X37       -7.65326  -0.00033   0.00000  -0.00612  -0.00774  -7.66100
   Y37       -6.68073   0.00125   0.00000   0.01371   0.01501  -6.66572
   Z37       23.44808  -0.00335   0.00000  -0.01135  -0.01195  23.43613
   X38        0.59758  -0.00439   0.00000   0.00398   0.00316   0.60074
   Y38       -0.04157  -0.00183   0.00000  -0.00465  -0.00259  -0.04416
   Z38       17.53229  -0.00127   0.00000  -0.00192  -0.00054  17.53175
   X39      -18.31228   0.00452   0.00000  -0.00703  -0.00841 -18.32069
   Y39       -5.74758   0.00179   0.00000   0.01278   0.01666  -5.73092
   Z39       17.62123  -0.00139   0.00000  -0.00132  -0.00195  17.61929
   X40      -11.99117   0.00208   0.00000   0.00185   0.00170 -11.98947
   Y40        6.47926  -0.00598   0.00000   0.00600   0.00959   6.48885
   Z40       16.37408   0.00088   0.00000   0.00905   0.01183  16.38591
   X41       -5.68916  -0.00105   0.00000   0.00329   0.00130  -5.68785
   Y41      -12.27406   0.00473   0.00000   0.00495   0.00789 -12.26617
   Z41       16.52351   0.00128   0.00000   0.00062  -0.00142  16.52209
   X42       -3.35744  -0.00197   0.00000  -0.01274  -0.01334  -3.37078
   Y42        1.40523  -0.00272   0.00000  -0.00203   0.00132   1.40655
   Z42       14.12203   0.00136   0.00000   0.01186   0.01352  14.13555
   X43      -14.35592   0.00240   0.00000   0.01026   0.00881 -14.34711
   Y43       -7.33817   0.00249   0.00000   0.01272   0.01711  -7.32106
   Z43       14.25073   0.00108   0.00000   0.01059   0.00965  14.26038
   X44       -8.48161  -0.00032   0.00000   0.00486   0.00439  -8.47722
   Y44        4.14760  -0.00361   0.00000  -0.01242  -0.01004   4.13756
   Z44       19.70146  -0.00064   0.00000  -0.00246  -0.00021  19.70125
   X45       -9.20791   0.00087   0.00000  -0.00616  -0.00801  -9.21592
   Y45       -9.89195   0.00332   0.00000   0.01845   0.02084  -9.87111
   Z45       19.89943  -0.00134   0.00000  -0.01125  -0.01274  19.88669
   X46       -3.02482  -0.00263   0.00000  -0.00499  -0.00626  -3.03108
   Y46       -6.67561   0.00279   0.00000   0.00914   0.01358  -6.66203
   Z46        9.92691   0.00308   0.00000  -0.00697  -0.00745   9.91946
   X47      -14.76066   0.00282   0.00000  -0.00627  -0.00683 -14.76749
   Y47        0.52139  -0.00240   0.00000   0.00257   0.00819   0.52958
   Z47        9.78010   0.00324   0.00000  -0.00277  -0.00164   9.77845
   X48      -15.18240   0.00415   0.00000   0.00187   0.00085 -15.18155
   Y48       -0.31129  -0.00053   0.00000   0.00563   0.00749  -0.30380
   Z48       24.07580  -0.00350   0.00000   0.00714   0.00803  24.08383
   X49       -2.47413  -0.00383   0.00000  -0.00274  -0.00426  -2.47839
   Y49       -5.40742   0.00043   0.00000  -0.00168  -0.00107  -5.40849
   Z49       24.12223  -0.00323   0.00000   0.00352   0.00339  24.12562
   X50       -2.34852   0.01435   0.00000   0.00586   0.00496  -2.34356
   Y50       -1.01780   0.00480   0.00000   0.00605   0.00862  -1.00918
   Z50       16.70238   0.00302   0.00000   0.01211   0.01315  16.71553
   X51      -15.36465  -0.01478   0.00000  -0.00976  -0.01102 -15.37568
   Y51       -4.79805  -0.00388   0.00000   0.00452   0.00834  -4.78971
   Z51       16.76893   0.00334   0.00000   0.01346   0.01316  16.78208
   X52      -11.09313  -0.00567   0.00000  -0.00170  -0.00216 -11.09529
   Y52        3.50873   0.01565   0.00000   0.01348   0.01680   3.52553
   Z52       17.08953  -0.00323   0.00000  -0.00664  -0.00462  17.08490
   X53       -6.60362   0.00477   0.00000  -0.00155  -0.00327  -6.60690
   Y53       -9.29889  -0.01432   0.00000  -0.00241   0.00041  -9.29848
   Z53       17.31676  -0.00285   0.00000  -0.01295  -0.01422  17.30254
   X54       -7.95892  -0.00064   0.00000  -0.00282  -0.00406  -7.96298
   Y54       -5.88626   0.00146   0.00000  -0.00481  -0.00030  -5.88656
   Z54       11.47700   0.00204   0.00000  -0.00871  -0.00912  11.46789
   X55       -9.72690   0.00072   0.00000  -0.00405  -0.00471  -9.73162
   Y55       -0.11913  -0.00151   0.00000   0.02188   0.02658  -0.09255
   Z55       11.37311   0.00196   0.00000  -0.00714  -0.00605  11.36705
   X56      -11.65336   0.00171   0.00000  -0.01137  -0.01269 -11.66605
   Y56       -3.78053  -0.00018   0.00000  -0.00275  -0.00082  -3.78135
   Z56       22.50646  -0.00209   0.00000   0.00984   0.00990  22.51636
   X57       -5.99282  -0.00131   0.00000   0.01145   0.01032  -5.98250
   Y57       -1.87502  -0.00053   0.00000   0.00730   0.00868  -1.86633
   Z57       22.52119  -0.00203   0.00000   0.00966   0.01038  22.53156
   X58       -8.21844   0.00029   0.00000  -0.00381  -0.00427  -8.22271
   Y58        2.98391  -0.00244   0.00000   0.01689   0.02054   3.00445
   Z58       14.80495   0.00113   0.00000  -0.00427  -0.00232  14.80263
   X59       -9.46478   0.00038   0.00000   0.00158  -0.00004  -9.46482
   Y59       -8.85293   0.00217   0.00000  -0.00529  -0.00157  -8.85450
   Z59       14.97550   0.00140   0.00000  -0.00801  -0.00924  14.96626
   X60       -4.37945  -0.00138   0.00000   0.01292   0.01216  -4.36729
   Y60        1.06307  -0.00165   0.00000   0.00512   0.00727   1.07033
   Z60       19.04129  -0.00149   0.00000   0.00966   0.01120  19.05248
   X61      -13.31102   0.00164   0.00000  -0.01511  -0.01664 -13.32765
   Y61       -6.83305   0.00138   0.00000   0.00305   0.00604  -6.82701
   Z61       19.14329  -0.00140   0.00000   0.00835   0.00756  19.15085
   X62       -4.85747  -0.00126   0.00000  -0.00314  -0.00461  -4.86209
   Y62       -7.38974   0.00197   0.00000  -0.00275   0.00056  -7.38918
   Z62       14.86917   0.00073   0.00000  -0.01130  -0.01202  14.85715
   X63      -12.86065   0.00111   0.00000  -0.00179  -0.00238 -12.86303
   Y63        1.49901  -0.00252   0.00000   0.01455   0.01866   1.51768
   Z63       14.74479   0.00048   0.00000  -0.00747  -0.00603  14.73876
   X64      -14.77894   0.00231   0.00000  -0.00851  -0.00959 -14.78853
   Y64       -2.22647  -0.00022   0.00000   0.00137   0.00450  -2.22197
   Z64       19.16371  -0.00096   0.00000   0.01226   0.01266  19.17637
   X65       -2.93463  -0.00236   0.00000   0.00561   0.00440  -2.93023
   Y65       -3.54379  -0.00024   0.00000   0.00635   0.00832  -3.53547
   Z65       19.16202  -0.00080   0.00000   0.00927   0.00963  19.17165
   X66       -6.33575  -0.02666   0.00000  -0.05026  -0.05123  -6.38698
   Y66       -2.19432  -0.00488   0.00000  -0.00069   0.00268  -2.19164
   Z66       15.14082   0.01702   0.00000   0.02820   0.02882  15.16964
   X67      -11.36459   0.02702   0.00000   0.04481   0.04370 -11.32090
   Y67       -3.70783   0.00561   0.00000   0.01551   0.01935  -3.68848
   Z67       15.18172   0.01696   0.00000   0.02935   0.02944  15.21116
   X68       -9.65950   0.01134   0.00000   0.02114   0.02025  -9.63925
   Y68       -0.39911  -0.02566   0.00000  -0.03900  -0.03626  -0.43537
   Z68       18.78853  -0.01714   0.00000  -0.02652  -0.02552  18.76300
   X69       -8.00594  -0.01115   0.00000  -0.02360  -0.02498  -8.03092
   Y69       -5.38640   0.02450   0.00000   0.04631   0.04887  -5.33753
   Z69       18.85163  -0.01737   0.00000  -0.02886  -0.02912  18.82252
   X70       -6.07315   0.00020   0.00000  -0.00180  -0.00357  -6.07672
   Y70      -11.59052  -0.00098   0.00000  -0.00466  -0.00012 -11.59064
   Z70       10.67225  -0.00065   0.00000  -0.01006  -0.01192  10.66033
   X71       -0.22018   0.00079   0.00000   0.01125   0.01028  -0.20990
   Y71        0.07937   0.00009   0.00000   0.00364   0.00425   0.08362
   Z71       23.29637   0.00065   0.00000   0.00932   0.01070  23.30708
   X72      -17.54308  -0.00096   0.00000  -0.01282  -0.01431 -17.55739
   Y72       -5.33575  -0.00035   0.00000   0.00155   0.00380  -5.33195
   Z72       23.48130   0.00057   0.00000   0.00983   0.00933  23.49063
   X73       -8.84535  -0.00041   0.00000  -0.00245  -0.00354  -8.84889
   Y73       -2.91595   0.00042   0.00000   0.00580   0.00893  -2.90702
   Z73       16.98820   0.00014   0.00000   0.00079   0.00115  16.98935
         Item               Value     Threshold  Converged?
 Maximum Force            0.027024     0.000450     NO 
 RMS     Force            0.006129     0.000300     NO 
 Maximum Displacement     0.114485     0.001800     NO 
 RMS     Displacement     0.020151     0.001200     NO 
 Predicted change in Energy=-6.166391D-03
 GradGradGradGradGradGradGradGradGradGradGradGradGradGradGradGradGradGrad

 Unable to Open any file for archive entry.
 1\1\GINC-X11P1N2\Force\RwB97XD\def2SVP\C8H8Cl1K3O40V1W12(1-)\MAYUMIAO\
 02-Jun-2024\0\\# def2svp wb97xd scrf=(smd,solvent=acetonitrile) g09def
 ault scf=(xqc,maxcycle=64) force guess=read nosymm\\Title Card\\-1,1\C
 l,-9.64456284,8.27213185,10.54325303\C,-8.34654388,4.25235045,12.21326
 856\C,-9.14151916,3.93230969,11.09654558\C,-10.05455584,2.86801788,11.
 2155497\C,-10.20620475,2.18247832,12.41608424\C,-9.43516032,2.53509715
 ,13.5247281\C,-8.49405389,3.56117483,13.41235468\H,-7.60195729,5.04871
 472,12.14411685\H,-10.65966673,2.5896214,10.3481876\H,-10.92788953,1.3
 6518893,12.48724313\H,-9.55555627,2.00130833,14.46995004\H,-7.87085609
 ,3.82550637,14.27044113\C,-9.0820479,4.67404822,9.8360253\C,-8.4175654
 ,5.82836237,9.61880361\H,-9.66615818,4.24364922,9.01479258\H,-8.434982
 68,6.2995266,8.63489305\H,-7.79253162,6.30259793,10.37483573\O,-0.9751
 6246,-1.80335006,7.46503574\O,-8.38787699,-1.3322032,7.46198431\O,-7.0
 1844482,1.34639215,10.47400248\O,-2.33457184,-4.39822832,10.55505092\W
 ,-3.39892538,0.6919744,6.47928331\W,-5.98874713,-3.82164218,6.55836705
 \W,-3.60818912,0.8691828,11.41514604\W,-5.76161526,-3.86698098,11.4824
 8347\W,-2.43005947,-2.59194237,6.40135615\W,-6.93458764,-0.53522952,6.
 36881119\W,-6.81332099,-0.25151683,11.56263314\W,-2.54394954,-2.740479
 37,11.60405569\O,-3.16423274,1.87453308,5.29802175\O,-6.12248883,-5.07
 215164,5.41633671\O,-2.67945662,1.70876709,12.56467766\O,-6.68106385,-
 4.66788648,12.66463738\O,-2.65887985,-0.91699792,5.5889178\O,-6.699501
 56,-2.26952846,5.62028743\O,-5.30339751,0.5493281,12.35894451\O,-4.049
 93054,-3.53529006,12.40818872\O,0.31622682,-0.02199982,9.27768736\O,-9
 .69044131,-3.04148743,9.32475483\O,-6.34545229,3.42867773,8.66478919\O
 ,-3.01057204,-6.49515336,8.74386514\O,-1.77668121,0.74361612,7.4730554
 2\O,-7.59682516,-3.88319065,7.54116185\O,-4.48827516,2.19481767,10.425
 5644\O,-4.87261756,-5.23459682,10.53032584\O,-1.60066714,-3.532581,5.2
 5309505\O,-7.81100269,0.27590895,5.17540447\O,-8.03418026,-0.16472595,
 12.74036352\O,-1.30925487,-2.86148293,12.76493637\W,-1.24278507,-0.538
 59727,8.83851804\W,-8.13062473,-2.53901911,8.87373508\W,-5.87023059,1.
 85674197,9.04338826\W,-3.49448773,-4.92075927,9.16363212\O,-4.21167998
 ,-3.1148732,6.07336783\O,-5.1472547,-0.06304067,6.01838836\O,-6.166693
 92,-2.0005715,11.90990462\O,-3.17126206,-0.99221537,11.91769934\O,-4.3
 4901095,1.57901944,7.83444198\O,-5.00854685,-4.68477052,7.9246934\O,-2
 .31750378,0.56255053,10.07621425\O,-7.04388716,-3.61589573,10.1301917\
 O,-2.57046348,-3.9104819,7.86842544\O,-6.80556105,0.79324413,7.8026056
 2\O,-7.82068002,-1.17819815,10.14099888\O,-1.55293939,-1.87529355,10.1
 4010487\O,-3.35273432,-1.16118203,8.01217646\O,-6.01388238,-1.96209858
 ,8.03381794\O,-5.11158862,-0.21119772,9.94245946\O,-4.23656155,-2.8503
 5944,9.97585411\K,-3.21377331,-6.13343929,5.64751409\K,-0.11651394,0.0
 4200329,12.32790975\K,-9.28339873,-2.8235584,12.42577008\V,-4.68075653
 ,-1.54305369,8.98976852\\Version=ES64L-G16RevC.01\HF=-7327.7018489\RMS
 D=1.854e-09\RMSF=6.129e-03\Dipole=10.0220039,-21.9048097,2.4454876\Qua
 drupole=-68.675812,44.1151348,24.5606773,332.0482161,334.3614659,-354.
 6320854\PG=C01 [X(C8H8Cl1K3O40V1W12)]\\@
 The archive entry for this job was punched.


 YOU KNOW YOU'VE SPOKEN TOO LONG WHEN THE AUDIENCE STOPS LOOKING AT
 THEIR WATCHES AND STARTS SHAKING THEM.
 Job cpu time:       0 days  9 hours 25 minutes 49.3 seconds.
 Elapsed time:       0 days  0 hours 10 minutes 43.7 seconds.
 File lengths (MBytes):  RWF=   1257 Int=      0 D2E=      0 Chk=    249 Scr=      1
 Normal termination of Gaussian 16 at Sun Jun  2 20:08:16 2024.
