 Entering Gaussian System, Link 0=g16
 Input=JOBS/54_B.gjf
 Output=JOBS/54_B.log
 Initial command:
 /data/app/gaussian/C01-avx2//g16/l1.exe "/tmp/Gau-682044.inp" -scrdir="/tmp/"
 Entering Link 1 = /data/app/gaussian/C01-avx2//g16/l1.exe PID=    682045.
  
 Copyright (c) 1988-2019, Gaussian, Inc.  All Rights Reserved.
  
 This is part of the Gaussian(R) 16 program.  It is based on
 the Gaussian(R) 09 system (copyright 2009, Gaussian, Inc.),
 the Gaussian(R) 03 system (copyright 2003, Gaussian, Inc.),
 the Gaussian(R) 98 system (copyright 1998, Gaussian, Inc.),
 the Gaussian(R) 94 system (copyright 1995, Gaussian, Inc.),
 the Gaussian 92(TM) system (copyright 1992, Gaussian, Inc.),
 the Gaussian 90(TM) system (copyright 1990, Gaussian, Inc.),
 the Gaussian 88(TM) system (copyright 1988, Gaussian, Inc.),
 the Gaussian 86(TM) system (copyright 1986, Carnegie Mellon
 University), and the Gaussian 82(TM) system (copyright 1983,
 Carnegie Mellon University). Gaussian is a federally registered
 trademark of Gaussian, Inc.
  
 This software contains proprietary and confidential information,
 including trade secrets, belonging to Gaussian, Inc.
  
 This software is provided under written license and may be
 used, copied, transmitted, or stored only in accord with that
 written license.
  
 The following legend is applicable only to US Government
 contracts under FAR:
  
                    RESTRICTED RIGHTS LEGEND
  
 Use, reproduction and disclosure by the US Government is
 subject to restrictions as set forth in subparagraphs (a)
 and (c) of the Commercial Computer Software - Restricted
 Rights clause in FAR 52.227-19.
  
 Gaussian, Inc.
 340 Quinnipiac St., Bldg. 40, Wallingford CT 06492
  
  
 ---------------------------------------------------------------
 Warning -- This program may not be used in any manner that
 competes with the business of Gaussian, Inc. or will provide
 assistance to any competitor of Gaussian, Inc.  The licensee
 of this program is prohibited from giving any competitor of
 Gaussian, Inc. access to this program.  By using this program,
 the user acknowledges that Gaussian, Inc. is engaged in the
 business of creating and licensing software in the field of
 computational chemistry and represents and warrants to the
 licensee that it is not a competitor of Gaussian, Inc. and that
 it will not use this program in any manner prohibited above.
 ---------------------------------------------------------------
  

 Cite this work as:
 Gaussian 16, Revision C.01,
 M. J. Frisch, G. W. Trucks, H. B. Schlegel, G. E. Scuseria, 
 M. A. Robb, J. R. Cheeseman, G. Scalmani, V. Barone, 
 G. A. Petersson, H. Nakatsuji, X. Li, M. Caricato, A. V. Marenich, 
 J. Bloino, B. G. Janesko, R. Gomperts, B. Mennucci, H. P. Hratchian, 
 J. V. Ortiz, A. F. Izmaylov, J. L. Sonnenberg, D. Williams-Young, 
 F. Ding, F. Lipparini, F. Egidi, J. Goings, B. Peng, A. Petrone, 
 T. Henderson, D. Ranasinghe, V. G. Zakrzewski, J. Gao, N. Rega, 
 G. Zheng, W. Liang, M. Hada, M. Ehara, K. Toyota, R. Fukuda, 
 J. Hasegawa, M. Ishida, T. Nakajima, Y. Honda, O. Kitao, H. Nakai, 
 T. Vreven, K. Throssell, J. A. Montgomery, Jr., J. E. Peralta, 
 F. Ogliaro, M. J. Bearpark, J. J. Heyd, E. N. Brothers, K. N. Kudin, 
 V. N. Staroverov, T. A. Keith, R. Kobayashi, J. Normand, 
 K. Raghavachari, A. P. Rendell, J. C. Burant, S. S. Iyengar, 
 J. Tomasi, M. Cossi, J. M. Millam, M. Klene, C. Adamo, R. Cammi, 
 J. W. Ochterski, R. L. Martin, K. Morokuma, O. Farkas, 
 J. B. Foresman, and D. J. Fox, Gaussian, Inc., Wallingford CT, 2019.
 
 ******************************************
 Gaussian 16:  ES64L-G16RevC.01  3-Jul-2019
                 2-Jun-2024 
 ******************************************
 %chk=b.chk
 %nprocshared=56
 Will use up to   56 processors via shared memory.
 %mem=96gb
 ----------------------------------------------------------------------
 # def2svp wb97xd scrf=(smd,solvent=acetonitrile) g09default scf=(xqc,m
 axcycle=64) force guess=read nosymm
 ----------------------------------------------------------------------
 1/10=7,30=1,38=1,158=3,167=1/1,3;
 2/12=2,15=1,17=6,18=5,40=1/2;
 3/5=43,7=101,11=2,25=1,27=10,30=1,70=32201,71=1,72=2,74=-58,75=-4,116=-2,158=3/1,2,3;
 4/5=1,60=-1/1;
 5/5=2,7=64,8=3,13=1,38=6,53=2,87=10/2,8;
 6/7=2,8=2,9=2,10=2,28=1,87=10/1;
 7/29=1,30=1,87=10/1,2,3,16;
 1/10=7,30=1,158=3,167=1/3;
 99//99;
 Using 2006 physical constants.
 ----------
 Title Card
 ----------
 Symbolic Z-matrix:
 Charge = -1 Multiplicity = 1
 17                   -9.64456   8.27213   10.54325 
 6                    -8.34654   4.25235   12.21327 
 6                    -9.14152   3.93231   11.09655 
 6                    -10.05456   2.86802   11.21555 
 6                    -10.2062   2.18248   12.41608 
 6                    -9.43516   2.5351    13.52473 
 6                    -8.49405   3.56117   13.41235 
 1                    -7.60196   5.04871   12.14412 
 1                    -10.65967   2.58962   10.34819 
 1                    -10.92789   1.36519   12.48724 
 1                    -9.55556   2.00131   14.46995 
 1                    -7.87086   3.82551   14.27044 
 6                    -9.08205   4.67405   9.83603 
 6                    -8.41757   5.82836   9.6188 
 1                    -9.66616   4.24365   9.01479 
 1                    -8.43498   6.29953   8.63489 
 1                    -7.79253   6.3026    10.37484 
 8                    -0.97516  -1.80335   7.46504 
 8                    -8.38788  -1.3322    7.46198 
 8                    -7.01844   1.34639   10.474 
 8                    -2.33457  -4.39823   10.55505 
 74                   -3.39893   0.69197   6.47928 
 74                   -5.98875  -3.82164   6.55837 
 74                   -3.60819   0.86918   11.41515 
 74                   -5.76162  -3.86698   11.48248 
 74                   -2.43006  -2.59194   6.40136 
 74                   -6.93459  -0.53523   6.36881 
 74                   -6.81332  -0.25152   11.56263 
 74                   -2.54395  -2.74048   11.60406 
 8                    -3.16423   1.87453   5.29802 
 8                    -6.12249  -5.07215   5.41634 
 8                    -2.67946   1.70877   12.56468 
 8                    -6.68106  -4.66789   12.66464 
 8                    -2.65888  -0.917     5.58892 
 8                    -6.6995   -2.26953   5.62029 
 8                    -5.3034    0.54933   12.35894 
 8                    -4.04993  -3.53529   12.40819 
 8                     0.31623  -0.022     9.27769 
 8                    -9.69044  -3.04149   9.32475 
 8                    -6.34545   3.42868   8.66479 
 8                    -3.01057  -6.49515   8.74387 
 8                    -1.77668   0.74362   7.47306 
 8                    -7.59683  -3.88319   7.54116 
 8                    -4.48828   2.19482   10.42556 
 8                    -4.87262  -5.2346    10.53033 
 8                    -1.60067  -3.53258   5.2531 
 8                    -7.811     0.27591   5.1754 
 8                    -8.03418  -0.16473   12.74036 
 8                    -1.30925  -2.86148   12.76494 
 74                   -1.24279  -0.5386    8.83852 
 74                   -8.13062  -2.53902   8.87374 
 74                   -5.87023   1.85674   9.04339 
 74                   -3.49449  -4.92076   9.16363 
 8                    -4.21168  -3.11487   6.07337 
 8                    -5.14725  -0.06304   6.01839 
 8                    -6.16669  -2.00057   11.9099 
 8                    -3.17126  -0.99222   11.9177 
 8                    -4.34901   1.57902   7.83444 
 8                    -5.00855  -4.68477   7.92469 
 8                    -2.3175    0.56255   10.07621 
 8                    -7.04389  -3.6159    10.13019 
 8                    -2.57046  -3.91048   7.86843 
 8                    -6.80556   0.79324   7.80261 
 8                    -7.82068  -1.1782    10.141 
 8                    -1.55294  -1.87529   10.1401 
 8                    -3.35273  -1.16118   8.01218 
 8                    -6.01388  -1.9621    8.03382 
 8                    -5.11159  -0.2112    9.94246 
 8                    -4.23656  -2.85036   9.97585 
 19                   -3.21377  -6.13344   5.64751 
 19                   -0.11651   0.042     12.32791 
 19                   -9.2834   -2.82356   12.42577 
 23                   -4.68076  -1.54305   8.98977 
 

 GradGradGradGradGradGradGradGradGradGradGradGradGradGradGradGradGradGrad
 Berny optimization.
 Initialization pass.
 Trust Radius=3.00D-01 FncErr=1.00D-07 GrdErr=1.00D-07 EigMax=2.50D+02 EigMin=1.00D-04
 Number of steps in this run=      2 maximum allowed number of steps=      2.
 GradGradGradGradGradGradGradGradGradGradGradGradGradGradGradGradGradGrad

 Symmetry turned off by external request.
 Stoichiometry    C8H8ClK3O40VW12(1-)
 Framework group  C1[X(C8H8ClK3O40VW12)]
 Deg. of freedom   213
 Full point group                 C1      NOp   1
                          Input orientation:                          
 ---------------------------------------------------------------------
 Center     Atomic      Atomic             Coordinates (Angstroms)
 Number     Number       Type             X           Y           Z
 ---------------------------------------------------------------------
      1         17           0       -9.644563    8.272132   10.543253
      2          6           0       -8.346544    4.252350   12.213269
      3          6           0       -9.141519    3.932310   11.096546
      4          6           0      -10.054556    2.868018   11.215550
      5          6           0      -10.206205    2.182478   12.416084
      6          6           0       -9.435160    2.535097   13.524728
      7          6           0       -8.494054    3.561175   13.412355
      8          1           0       -7.601957    5.048715   12.144117
      9          1           0      -10.659667    2.589621   10.348188
     10          1           0      -10.927890    1.365189   12.487243
     11          1           0       -9.555556    2.001308   14.469950
     12          1           0       -7.870856    3.825506   14.270441
     13          6           0       -9.082048    4.674048    9.836025
     14          6           0       -8.417565    5.828362    9.618804
     15          1           0       -9.666158    4.243649    9.014793
     16          1           0       -8.434983    6.299527    8.634893
     17          1           0       -7.792532    6.302598   10.374836
     18          8           0       -0.975162   -1.803350    7.465036
     19          8           0       -8.387877   -1.332203    7.461984
     20          8           0       -7.018445    1.346392   10.474002
     21          8           0       -2.334572   -4.398228   10.555051
     22         74           0       -3.398925    0.691974    6.479283
     23         74           0       -5.988747   -3.821642    6.558367
     24         74           0       -3.608189    0.869183   11.415146
     25         74           0       -5.761615   -3.866981   11.482483
     26         74           0       -2.430059   -2.591942    6.401356
     27         74           0       -6.934588   -0.535230    6.368811
     28         74           0       -6.813321   -0.251517   11.562633
     29         74           0       -2.543950   -2.740479   11.604056
     30          8           0       -3.164233    1.874533    5.298022
     31          8           0       -6.122489   -5.072152    5.416337
     32          8           0       -2.679457    1.708767   12.564678
     33          8           0       -6.681064   -4.667886   12.664637
     34          8           0       -2.658880   -0.916998    5.588918
     35          8           0       -6.699502   -2.269528    5.620287
     36          8           0       -5.303398    0.549328   12.358945
     37          8           0       -4.049931   -3.535290   12.408189
     38          8           0        0.316227   -0.022000    9.277687
     39          8           0       -9.690441   -3.041487    9.324755
     40          8           0       -6.345452    3.428678    8.664789
     41          8           0       -3.010572   -6.495153    8.743865
     42          8           0       -1.776681    0.743616    7.473055
     43          8           0       -7.596825   -3.883191    7.541162
     44          8           0       -4.488275    2.194818   10.425564
     45          8           0       -4.872618   -5.234597   10.530326
     46          8           0       -1.600667   -3.532581    5.253095
     47          8           0       -7.811003    0.275909    5.175404
     48          8           0       -8.034180   -0.164726   12.740364
     49          8           0       -1.309255   -2.861483   12.764936
     50         74           0       -1.242785   -0.538597    8.838518
     51         74           0       -8.130625   -2.539019    8.873735
     52         74           0       -5.870231    1.856742    9.043388
     53         74           0       -3.494488   -4.920759    9.163632
     54          8           0       -4.211680   -3.114873    6.073368
     55          8           0       -5.147255   -0.063041    6.018388
     56          8           0       -6.166694   -2.000571   11.909905
     57          8           0       -3.171262   -0.992215   11.917699
     58          8           0       -4.349011    1.579019    7.834442
     59          8           0       -5.008547   -4.684771    7.924693
     60          8           0       -2.317504    0.562551   10.076214
     61          8           0       -7.043887   -3.615896   10.130192
     62          8           0       -2.570463   -3.910482    7.868425
     63          8           0       -6.805561    0.793244    7.802606
     64          8           0       -7.820680   -1.178198   10.140999
     65          8           0       -1.552939   -1.875294   10.140105
     66          8           0       -3.352734   -1.161182    8.012176
     67          8           0       -6.013882   -1.962099    8.033818
     68          8           0       -5.111589   -0.211198    9.942459
     69          8           0       -4.236562   -2.850359    9.975854
     70         19           0       -3.213773   -6.133439    5.647514
     71         19           0       -0.116514    0.042003   12.327910
     72         19           0       -9.283399   -2.823558   12.425770
     73         23           0       -4.680757   -1.543054    8.989769
 ---------------------------------------------------------------------
 Rotational constants (GHZ):           0.0172146           0.0132209           0.0129980
 Standard basis: def2SVP (5D, 7F)
  1217 basis functions,  2313 primitive gaussians,  1337 cartesian basis functions
   321 alpha electrons      321 beta electrons
       nuclear repulsion energy     20977.0591400700 Hartrees.
 NAtoms=   73 NActive=   73 NUniq=   73 SFac= 1.00D+00 NAtFMM=   60 NAOKFM=T Big=T
 Integral buffers will be    131072 words long.
 Raffenetti 2 integral format.
 Two-electron integral symmetry is turned off.
 Nuclear repulsion after empirical dispersion term =    20976.7827281870 Hartrees.
 Force PCM accuracy= 1.00D-10.
 ------------------------------------------------------------------------------
 Polarizable Continuum Model (PCM)
 =================================
 Model                : PCM (using non-symmetric T matrix).
 Atomic radii         : SMD-Coulomb.
 Polarization charges : Total charges.
 Charge compensation  : None.
 Solution method      : On-the-fly selection.
 Cavity type          : VdW (van der Waals Surface) (Alpha=1.000).
 Cavity algorithm     : GePol (No added spheres)
                        Default sphere list used, NSphG=   73.
                        Lebedev-Laikov grids with approx.  5.0 points / Ang**2.
                        Smoothing algorithm: York/Karplus (Gamma=1.0000).
                        Polarization charges: spherical gaussians, with
                                              point-specific exponents (IZeta= 3).
                        Self-potential: point-specific (ISelfS= 7).
                        Self-field    : sphere-specific E.n sum rule (ISelfD= 2).
 1st derivatives      : Analytical E(r).r(x)/FMM algorithm (CHGder, D1EAlg=3).
                        Cavity 1st derivative terms included.
 Solvent              : Acetonitrile, Eps=  35.688000 Eps(inf)=   1.806874
 ------------------------------------------------------------------------------
 ------------------------------------------------------------------------------
 Atomic radii for non-electrostatic terms: SMD-CDS.
 ------------------------------------------------------------------------------
 Nuclear repulsion after PCM non-electrostatic terms =    20976.7770291922 Hartrees.
 One-electron integrals computed using PRISM.
   1 Symmetry operations used in ECPInt.
 ECPInt:  NShTT=  127765 NPrTT=  468030 LenC2=   96522 LenP2D=  220881.
 LDataN:  DoStor=T MaxTD1= 8 Len=  415
 NBasis=  1217 RedAO= T EigKep=  1.38D-04  NBF=  1217
 NBsUse=  1217 1.00D-06 EigRej= -1.00D+00 NBFU=  1217
 Defaulting to unpruned grid for atomic number  74.
 Defaulting to unpruned grid for atomic number  74.
 Defaulting to unpruned grid for atomic number  74.
 Defaulting to unpruned grid for atomic number  74.
 Defaulting to unpruned grid for atomic number  74.
 Defaulting to unpruned grid for atomic number  74.
 Defaulting to unpruned grid for atomic number  74.
 Defaulting to unpruned grid for atomic number  74.
 Initial guess from the checkpoint file:  "b.chk"
 B after Tr=     0.001194   -0.000796    0.000225
         Rot=    1.000000   -0.000010    0.000013    0.000035 Ang=  -0.00 deg.
 Initial guess <Sx>= 0.0000 <Sy>= 0.0000 <Sz>= 0.0000 <S**2>= 1.0216 S= 0.6277
 Requested convergence on RMS density matrix=1.00D-08 within  64 cycles.
 Requested convergence on MAX density matrix=1.00D-06.
 Requested convergence on             energy=1.00D-06.
 No special actions if energy rises.
 Defaulting to unpruned grid for atomic number  74.
 Defaulting to unpruned grid for atomic number  74.
 Defaulting to unpruned grid for atomic number  74.
 Defaulting to unpruned grid for atomic number  74.
 Defaulting to unpruned grid for atomic number  74.
 Defaulting to unpruned grid for atomic number  74.
 Defaulting to unpruned grid for atomic number  74.
 Defaulting to unpruned grid for atomic number  74.
 Defaulting to unpruned grid for atomic number  74.
 Defaulting to unpruned grid for atomic number  74.
 Defaulting to unpruned grid for atomic number  74.
 Defaulting to unpruned grid for atomic number  74.
 Defaulting to unpruned grid for atomic number  74.
 Defaulting to unpruned grid for atomic number  74.
 Defaulting to unpruned grid for atomic number  74.
 Defaulting to unpruned grid for atomic number  74.
 Defaulting to unpruned grid for atomic number  74.
 Defaulting to unpruned grid for atomic number  74.
 Defaulting to unpruned grid for atomic number  74.
 Defaulting to unpruned grid for atomic number  74.
 Defaulting to unpruned grid for atomic number  74.
 Defaulting to unpruned grid for atomic number  74.
 Defaulting to unpruned grid for atomic number  74.
 Defaulting to unpruned grid for atomic number  74.
 Defaulting to unpruned grid for atomic number  74.
 Defaulting to unpruned grid for atomic number  74.
 Defaulting to unpruned grid for atomic number  74.
 Defaulting to unpruned grid for atomic number  74.
 Defaulting to unpruned grid for atomic number  74.
 Defaulting to unpruned grid for atomic number  74.
 Defaulting to unpruned grid for atomic number  74.
 Defaulting to unpruned grid for atomic number  74.
 Defaulting to unpruned grid for atomic number  74.
 Defaulting to unpruned grid for atomic number  74.
 Defaulting to unpruned grid for atomic number  74.
 Defaulting to unpruned grid for atomic number  74.
 Defaulting to unpruned grid for atomic number  74.
 Defaulting to unpruned grid for atomic number  74.
 Defaulting to unpruned grid for atomic number  74.
 Defaulting to unpruned grid for atomic number  74.
 Defaulting to unpruned grid for atomic number  74.
 Defaulting to unpruned grid for atomic number  74.
 Defaulting to unpruned grid for atomic number  74.
 Defaulting to unpruned grid for atomic number  74.
 Defaulting to unpruned grid for atomic number  74.
 Defaulting to unpruned grid for atomic number  74.
 Defaulting to unpruned grid for atomic number  74.
 Defaulting to unpruned grid for atomic number  74.
 Defaulting to unpruned grid for atomic number  74.
 Defaulting to unpruned grid for atomic number  74.
 Defaulting to unpruned grid for atomic number  74.
 Defaulting to unpruned grid for atomic number  74.
 Defaulting to unpruned grid for atomic number  74.
 Defaulting to unpruned grid for atomic number  74.
 Defaulting to unpruned grid for atomic number  74.
 Defaulting to unpruned grid for atomic number  74.
 Inv3:  Mode=1 IEnd=    87447603.
 Iteration    1 A*A^-1 deviation from unit magnitude is 3.55D-15 for   1882.
 Iteration    1 A*A^-1 deviation from orthogonality  is 4.22D-15 for   3434   1960.
 Iteration    1 A^-1*A deviation from unit magnitude is 4.00D-15 for   3268.
 Iteration    1 A^-1*A deviation from orthogonality  is 5.78D-11 for   4780   4777.
 Restarting incremental Fock formation.
 Error on total polarization charges =  0.01568
 SCF Done:  E(UwB97XD) =  -7327.70185366     A.U. after   32 cycles
            NFock= 32  Conv=0.68D-09     -V/T= 2.0831
 <Sx>= 0.0000 <Sy>= 0.0000 <Sz>= 0.0000 <S**2>= 1.0218 S= 0.6277
 <L.S>=  0.00000000000    
 SMD-CDS (non-electrostatic) energy       (kcal/mol) =      -3.58
 (included in total energy above)
 Annihilation of the first spin contaminant:
 S**2 before annihilation     1.0218,   after     0.1745
 QCSCF skips out because SCF is already converged.

 **********************************************************************

            Population analysis using the SCF Density.

 **********************************************************************

 Alpha  occ. eigenvalues -- -197.10942-129.99095-129.99062-129.99044-101.62181
 Alpha  occ. eigenvalues --  -22.44604 -19.28541 -19.28508 -19.28450 -19.28426
 Alpha  occ. eigenvalues --  -19.28400 -19.28379 -19.28363 -19.28359 -19.28353
 Alpha  occ. eigenvalues --  -19.28274 -19.28257 -19.28171 -19.26945 -19.26920
 Alpha  occ. eigenvalues --  -19.26913 -19.26860 -19.26849 -19.26834 -19.26832
 Alpha  occ. eigenvalues --  -19.26831 -19.26818 -19.26808 -19.26807 -19.26789
 Alpha  occ. eigenvalues --  -19.26777 -19.26772 -19.26763 -19.26762 -19.26759
 Alpha  occ. eigenvalues --  -19.26754 -19.26746 -19.26732 -19.26720 -19.26717
 Alpha  occ. eigenvalues --  -19.26652 -19.26615 -19.24772 -19.24736 -19.24710
 Alpha  occ. eigenvalues --  -19.24685 -18.94180 -18.93088 -18.93059 -13.36505
 Alpha  occ. eigenvalues --  -13.36472 -13.36446 -10.69432 -10.69428 -10.69426
 Alpha  occ. eigenvalues --  -10.69399 -10.69395 -10.69394 -10.69375 -10.69371
 Alpha  occ. eigenvalues --  -10.69365 -10.33016 -10.32188 -10.31982 -10.31035
 Alpha  occ. eigenvalues --  -10.31003 -10.30975 -10.30588 -10.30513  -9.52592
 Alpha  occ. eigenvalues --   -7.27475  -7.27133  -7.27128  -3.21129  -3.21102
 Alpha  occ. eigenvalues --   -3.21070  -3.21049  -3.21039  -3.21027  -3.21016
 Alpha  occ. eigenvalues --   -3.21014  -3.21003  -3.20876  -3.20873  -3.20843
 Alpha  occ. eigenvalues --   -2.78869  -1.85360  -1.85295  -1.85285  -1.85258
 Alpha  occ. eigenvalues --   -1.85151  -1.85080  -1.85063  -1.85047  -1.85034
 Alpha  occ. eigenvalues --   -1.85022  -1.85007  -1.84953  -1.84397  -1.84286
 Alpha  occ. eigenvalues --   -1.84272  -1.84256  -1.84222  -1.84212  -1.84155
 Alpha  occ. eigenvalues --   -1.84139  -1.84113  -1.84104  -1.84075  -1.84063
 Alpha  occ. eigenvalues --   -1.83967  -1.83925  -1.83887  -1.83880  -1.83866
 Alpha  occ. eigenvalues --   -1.83835  -1.83812  -1.83800  -1.83793  -1.83697
 Alpha  occ. eigenvalues --   -1.83686  -1.83679  -1.82024  -1.81681  -1.81665
 Alpha  occ. eigenvalues --   -1.50209  -1.50178  -1.50158  -1.08632  -1.07009
 Alpha  occ. eigenvalues --   -1.06966  -1.06925  -1.06021  -1.06008  -1.05983
 Alpha  occ. eigenvalues --   -1.04585  -1.04576  -1.04567  -1.03993  -1.03984
 Alpha  occ. eigenvalues --   -1.03728  -1.03382  -1.03347  -1.03326  -1.03032
 Alpha  occ. eigenvalues --   -1.03002  -1.02273  -1.02239  -1.02230  -1.02102
 Alpha  occ. eigenvalues --   -1.02012  -1.01983  -1.01912  -1.01896  -1.01776
 Alpha  occ. eigenvalues --   -1.01765  -1.01746  -1.01626  -1.01582  -1.01571
 Alpha  occ. eigenvalues --   -1.01306  -1.00824  -1.00757  -1.00695  -1.00688
 Alpha  occ. eigenvalues --   -1.00020  -0.99967  -0.99902  -0.96195  -0.89280
 Alpha  occ. eigenvalues --   -0.85656  -0.85622  -0.85611  -0.85502  -0.85484
 Alpha  occ. eigenvalues --   -0.85466  -0.85463  -0.85463  -0.85419  -0.84278
 Alpha  occ. eigenvalues --   -0.82503  -0.81058  -0.71930  -0.69625  -0.65073
 Alpha  occ. eigenvalues --   -0.62344  -0.61734  -0.61665  -0.61640  -0.60589
 Alpha  occ. eigenvalues --   -0.58983  -0.58963  -0.58942  -0.58889  -0.58820
 Alpha  occ. eigenvalues --   -0.58808  -0.58782  -0.58742  -0.58563  -0.57397
 Alpha  occ. eigenvalues --   -0.57355  -0.57335  -0.57042  -0.56767  -0.56511
 Alpha  occ. eigenvalues --   -0.56463  -0.56424  -0.56039  -0.55891  -0.55367
 Alpha  occ. eigenvalues --   -0.55357  -0.55319  -0.54452  -0.54159  -0.54136
 Alpha  occ. eigenvalues --   -0.53955  -0.53724  -0.53675  -0.53662  -0.52738
 Alpha  occ. eigenvalues --   -0.52652  -0.52609  -0.52505  -0.52466  -0.51487
 Alpha  occ. eigenvalues --   -0.51478  -0.51455  -0.51371  -0.51317  -0.50789
 Alpha  occ. eigenvalues --   -0.50571  -0.50533  -0.50488  -0.50406  -0.50337
 Alpha  occ. eigenvalues --   -0.50286  -0.50062  -0.50024  -0.49994  -0.49744
 Alpha  occ. eigenvalues --   -0.49650  -0.49607  -0.49506  -0.49485  -0.49281
 Alpha  occ. eigenvalues --   -0.49234  -0.49201  -0.49144  -0.49099  -0.49027
 Alpha  occ. eigenvalues --   -0.48709  -0.48549  -0.48526  -0.48462  -0.47656
 Alpha  occ. eigenvalues --   -0.47635  -0.47152  -0.46481  -0.46047  -0.46027
 Alpha  occ. eigenvalues --   -0.45886  -0.45846  -0.45755  -0.45626  -0.45225
 Alpha  occ. eigenvalues --   -0.45148  -0.45144  -0.44777  -0.44581  -0.44490
 Alpha  occ. eigenvalues --   -0.44474  -0.44439  -0.44299  -0.44214  -0.44182
 Alpha  occ. eigenvalues --   -0.43468  -0.43105  -0.42546  -0.42513  -0.42434
 Alpha  occ. eigenvalues --   -0.42333  -0.42205  -0.42177  -0.42167  -0.41640
 Alpha  occ. eigenvalues --   -0.41623  -0.41594  -0.41034  -0.40986  -0.40772
 Alpha  occ. eigenvalues --   -0.40759  -0.40731  -0.40366  -0.40349  -0.40320
 Alpha  occ. eigenvalues --   -0.40202  -0.40168  -0.40158  -0.40119  -0.39857
 Alpha  occ. eigenvalues --   -0.39368  -0.39261  -0.39232  -0.39127  -0.39058
 Alpha  occ. eigenvalues --   -0.38903  -0.38872  -0.38804  -0.38765  -0.38697
 Alpha  occ. eigenvalues --   -0.38305  -0.38270  -0.38222  -0.38034  -0.37214
 Alpha  occ. eigenvalues --   -0.37180  -0.34780  -0.34742  -0.33658  -0.30390
 Alpha  occ. eigenvalues --   -0.25849
 Alpha virt. eigenvalues --   -0.12101  -0.06406  -0.06344  -0.04897  -0.04861
 Alpha virt. eigenvalues --   -0.04760  -0.01518  -0.01415  -0.01377  -0.01163
 Alpha virt. eigenvalues --   -0.00927  -0.00921  -0.00888  -0.00161  -0.00093
 Alpha virt. eigenvalues --   -0.00054   0.00670   0.00708   0.00732   0.00908
 Alpha virt. eigenvalues --    0.00997   0.01123   0.01752   0.01790   0.01855
 Alpha virt. eigenvalues --    0.02484   0.02727   0.02786   0.02867   0.03474
 Alpha virt. eigenvalues --    0.03561   0.03717   0.03848   0.03926   0.04297
 Alpha virt. eigenvalues --    0.04318   0.04366   0.04393   0.04565   0.05020
 Alpha virt. eigenvalues --    0.05085   0.05989   0.06439   0.07884   0.08104
 Alpha virt. eigenvalues --    0.08446   0.08575   0.08765   0.08853   0.09249
 Alpha virt. eigenvalues --    0.09707   0.09867   0.09890   0.09916   0.10014
 Alpha virt. eigenvalues --    0.10047   0.10176   0.10352   0.10896   0.10941
 Alpha virt. eigenvalues --    0.11541   0.11637   0.11933   0.12238   0.12336
 Alpha virt. eigenvalues --    0.12471   0.12492   0.12529   0.12908   0.13301
 Alpha virt. eigenvalues --    0.13395   0.13588   0.14069   0.14301   0.14772
 Alpha virt. eigenvalues --    0.14917   0.14957   0.15192   0.15340   0.15916
 Alpha virt. eigenvalues --    0.16125   0.16762   0.17036   0.17757   0.17912
 Alpha virt. eigenvalues --    0.18313   0.18433   0.18618   0.18749   0.18943
 Alpha virt. eigenvalues --    0.19301   0.19382   0.19484   0.19572   0.19603
 Alpha virt. eigenvalues --    0.19720   0.19855   0.20038   0.20677   0.20978
 Alpha virt. eigenvalues --    0.21147   0.21322   0.21373   0.21609   0.21657
 Alpha virt. eigenvalues --    0.21725   0.21937   0.21988   0.22215   0.22308
 Alpha virt. eigenvalues --    0.22338   0.22795   0.23190   0.23256   0.23353
 Alpha virt. eigenvalues --    0.23403   0.23562   0.23775   0.23998   0.24251
 Alpha virt. eigenvalues --    0.24355   0.24574   0.24669   0.25013   0.25120
 Alpha virt. eigenvalues --    0.25335   0.25481   0.25561   0.26342   0.26639
 Alpha virt. eigenvalues --    0.26846   0.27126   0.27364   0.27674   0.27892
 Alpha virt. eigenvalues --    0.27993   0.28480   0.28683   0.28795   0.29194
 Alpha virt. eigenvalues --    0.29315   0.29352   0.29454   0.29590   0.29770
 Alpha virt. eigenvalues --    0.30056   0.30420   0.30727   0.31279   0.31531
 Alpha virt. eigenvalues --    0.31880   0.32196   0.32330   0.32797   0.33138
 Alpha virt. eigenvalues --    0.33651   0.34468   0.35526   0.36949   0.37077
 Alpha virt. eigenvalues --    0.38215   0.38633   0.38915   0.39363   0.39613
 Alpha virt. eigenvalues --    0.40464   0.41364   0.41782   0.41848   0.41964
 Alpha virt. eigenvalues --    0.42230   0.42494   0.42637   0.43395   0.43935
 Alpha virt. eigenvalues --    0.44211   0.44405   0.44875   0.45293   0.45555
 Alpha virt. eigenvalues --    0.45716   0.45784   0.45875   0.46525   0.46694
 Alpha virt. eigenvalues --    0.47016   0.47344   0.47940   0.47968   0.48266
 Alpha virt. eigenvalues --    0.48379   0.48553   0.48859   0.49062   0.49179
 Alpha virt. eigenvalues --    0.49495   0.49837   0.49921   0.50017   0.50056
 Alpha virt. eigenvalues --    0.50253   0.50375   0.50527   0.50708   0.50746
 Alpha virt. eigenvalues --    0.51199   0.51278   0.51624   0.51833   0.52051
 Alpha virt. eigenvalues --    0.52504   0.52748   0.52829   0.53060   0.53326
 Alpha virt. eigenvalues --    0.53767   0.54158   0.54290   0.54510   0.54709
 Alpha virt. eigenvalues --    0.54814   0.55432   0.55926   0.55977   0.56452
 Alpha virt. eigenvalues --    0.56628   0.57024   0.57090   0.57146   0.57580
 Alpha virt. eigenvalues --    0.58291   0.58720   0.58877   0.59071   0.59480
 Alpha virt. eigenvalues --    0.59954   0.60518   0.60790   0.61041   0.61617
 Alpha virt. eigenvalues --    0.61944   0.62784   0.63642   0.63938   0.64705
 Alpha virt. eigenvalues --    0.65052   0.65500   0.66430   0.66551   0.66623
 Alpha virt. eigenvalues --    0.68070   0.68290   0.68467   0.68757   0.69305
 Alpha virt. eigenvalues --    0.69464   0.69940   0.71079   0.71564   0.71666
 Alpha virt. eigenvalues --    0.72056   0.72274   0.72760   0.72832   0.73087
 Alpha virt. eigenvalues --    0.73195   0.73357   0.73485   0.73696   0.73845
 Alpha virt. eigenvalues --    0.74070   0.74345   0.75136   0.75701   0.75970
 Alpha virt. eigenvalues --    0.76168   0.76928   0.77224   0.78164   0.78413
 Alpha virt. eigenvalues --    0.78980   0.79257   0.79933   0.80296   0.80650
 Alpha virt. eigenvalues --    0.80722   0.81158   0.82048   0.82155   0.82317
 Alpha virt. eigenvalues --    0.83069   0.83377   0.83850   0.84020   0.84308
 Alpha virt. eigenvalues --    0.84622   0.85013   0.85439   0.86517   0.87116
 Alpha virt. eigenvalues --    0.87861   0.88224   0.89196   0.89753   0.89985
 Alpha virt. eigenvalues --    0.90242   0.90548   0.90715   0.91047   0.91772
 Alpha virt. eigenvalues --    0.91890   0.92254   0.92614   0.92649   0.92725
 Alpha virt. eigenvalues --    0.93249   0.93340   0.93480   0.93815   0.94728
 Alpha virt. eigenvalues --    0.95253   0.95527   0.95903   0.96528   0.96976
 Alpha virt. eigenvalues --    0.97080   0.97194   0.97338   0.97651   0.98496
 Alpha virt. eigenvalues --    0.99167   0.99395   0.99576   0.99895   1.00288
 Alpha virt. eigenvalues --    1.00452   1.00649   1.00749   1.00927   1.01012
 Alpha virt. eigenvalues --    1.01127   1.01292   1.01746   1.02213   1.02788
 Alpha virt. eigenvalues --    1.02838   1.02999   1.03495   1.03831   1.03938
 Alpha virt. eigenvalues --    1.04281   1.04373   1.04767   1.04874   1.05132
 Alpha virt. eigenvalues --    1.05193   1.05381   1.05575   1.06039   1.06481
 Alpha virt. eigenvalues --    1.06925   1.06978   1.07153   1.07376   1.07427
 Alpha virt. eigenvalues --    1.07703   1.07889   1.08199   1.08521   1.08877
 Alpha virt. eigenvalues --    1.08942   1.09173   1.09501   1.10141   1.10773
 Alpha virt. eigenvalues --    1.11157   1.11267   1.11950   1.12097   1.12316
 Alpha virt. eigenvalues --    1.12459   1.12834   1.13042   1.13058   1.13269
 Alpha virt. eigenvalues --    1.13457   1.13621   1.13815   1.13888   1.14182
 Alpha virt. eigenvalues --    1.14320   1.14804   1.15232   1.15370   1.16012
 Alpha virt. eigenvalues --    1.16322   1.16768   1.17441   1.17841   1.18474
 Alpha virt. eigenvalues --    1.18898   1.19698   1.19713   1.20087   1.20264
 Alpha virt. eigenvalues --    1.20953   1.22202   1.22705   1.22979   1.23065
 Alpha virt. eigenvalues --    1.23149   1.23256   1.23646   1.23792   1.24612
 Alpha virt. eigenvalues --    1.25360   1.26130   1.27285   1.27808   1.27974
 Alpha virt. eigenvalues --    1.28551   1.29394   1.29722   1.30233   1.30497
 Alpha virt. eigenvalues --    1.30586   1.30738   1.31092   1.31305   1.31988
 Alpha virt. eigenvalues --    1.32085   1.32171   1.32302   1.32379   1.32519
 Alpha virt. eigenvalues --    1.32722   1.32770   1.33158   1.33405   1.34467
 Alpha virt. eigenvalues --    1.34943   1.35051   1.35311   1.35473   1.35573
 Alpha virt. eigenvalues --    1.35834   1.35928   1.36284   1.36452   1.36548
 Alpha virt. eigenvalues --    1.36887   1.37008   1.37866   1.37940   1.38049
 Alpha virt. eigenvalues --    1.38235   1.38477   1.38811   1.38859   1.38879
 Alpha virt. eigenvalues --    1.39063   1.39342   1.39572   1.39752   1.39874
 Alpha virt. eigenvalues --    1.40202   1.40496   1.40549   1.40841   1.41135
 Alpha virt. eigenvalues --    1.41203   1.41291   1.41577   1.41725   1.41777
 Alpha virt. eigenvalues --    1.42081   1.42355   1.42472   1.42598   1.42636
 Alpha virt. eigenvalues --    1.43059   1.43292   1.43549   1.43571   1.43951
 Alpha virt. eigenvalues --    1.44521   1.44726   1.45270   1.45396   1.45528
 Alpha virt. eigenvalues --    1.45678   1.46209   1.46325   1.46780   1.47334
 Alpha virt. eigenvalues --    1.47742   1.48146   1.49664   1.49712   1.50001
 Alpha virt. eigenvalues --    1.50237   1.50729   1.51773   1.52179   1.52276
 Alpha virt. eigenvalues --    1.52487   1.53097   1.53303   1.53873   1.55371
 Alpha virt. eigenvalues --    1.55647   1.57357   1.58167   1.58219   1.58348
 Alpha virt. eigenvalues --    1.58640   1.58949   1.59032   1.59330   1.60120
 Alpha virt. eigenvalues --    1.60557   1.60917   1.61449   1.61639   1.62071
 Alpha virt. eigenvalues --    1.62165   1.62347   1.62999   1.63277   1.63878
 Alpha virt. eigenvalues --    1.64533   1.64745   1.64873   1.65363   1.65678
 Alpha virt. eigenvalues --    1.65866   1.66921   1.68046   1.68476   1.69378
 Alpha virt. eigenvalues --    1.69923   1.70559   1.70926   1.72468   1.73120
 Alpha virt. eigenvalues --    1.73284   1.73511   1.74188   1.74300   1.74907
 Alpha virt. eigenvalues --    1.75772   1.76419   1.77708   1.77899   1.78121
 Alpha virt. eigenvalues --    1.78591   1.78835   1.79197   1.79440   1.79813
 Alpha virt. eigenvalues --    1.80112   1.81109   1.81424   1.81905   1.82244
 Alpha virt. eigenvalues --    1.82355   1.82990   1.83513   1.83748   1.84216
 Alpha virt. eigenvalues --    1.84477   1.84766   1.84905   1.85515   1.86027
 Alpha virt. eigenvalues --    1.86091   1.86584   1.86714   1.87355   1.87751
 Alpha virt. eigenvalues --    1.88262   1.88403   1.88770   1.88961   1.89090
 Alpha virt. eigenvalues --    1.89654   1.90317   1.91390   1.91923   1.92477
 Alpha virt. eigenvalues --    1.92916   1.93176   1.93650   1.93769   1.94769
 Alpha virt. eigenvalues --    1.96134   1.96342   1.97708   1.97848   1.98305
 Alpha virt. eigenvalues --    1.98953   2.01680   2.02022   2.02138   2.02182
 Alpha virt. eigenvalues --    2.04979   2.05401   2.07068   2.07558   2.08270
 Alpha virt. eigenvalues --    2.11122   2.11339   2.11794   2.12783   2.13116
 Alpha virt. eigenvalues --    2.13774   2.14847   2.14943   2.15647   2.17520
 Alpha virt. eigenvalues --    2.18359   2.18552   2.19103   2.19257   2.20454
 Alpha virt. eigenvalues --    2.20658   2.20840   2.21642   2.24406   2.26335
 Alpha virt. eigenvalues --    2.26469   2.26994   2.27384   2.28789   2.29681
 Alpha virt. eigenvalues --    2.30402   2.30884   2.31389   2.32588   2.32927
 Alpha virt. eigenvalues --    2.33347   2.33777   2.33993   2.34642   2.34823
 Alpha virt. eigenvalues --    2.35101   2.38773   2.39523   2.41677   2.42861
 Alpha virt. eigenvalues --    2.44253   2.47844   2.49098   2.54484   2.64674
 Alpha virt. eigenvalues --    2.66655   2.66994   2.67020   2.67183   2.67686
 Alpha virt. eigenvalues --    2.68977   2.69190   2.69236   2.69345   2.69525
 Alpha virt. eigenvalues --    2.69567   2.69692   2.69813   2.69867   2.70066
 Alpha virt. eigenvalues --    2.70105   2.70139   2.70548   2.70654   2.70745
 Alpha virt. eigenvalues --    2.70779   2.70865   2.70950   2.71333   2.71582
 Alpha virt. eigenvalues --    2.71748   2.71997   2.72861   2.72885   2.73014
 Alpha virt. eigenvalues --    2.73170   2.73341   2.73476   2.73594   2.73628
 Alpha virt. eigenvalues --    2.73835   2.74312   2.74390   2.74408   2.75427
 Alpha virt. eigenvalues --    2.75478   2.75567   2.75652   2.75688   2.75719
 Alpha virt. eigenvalues --    2.75880   2.75946   2.76034   2.76079   2.76179
 Alpha virt. eigenvalues --    2.76243   2.76345   2.76446   2.76933   2.77414
 Alpha virt. eigenvalues --    2.77540   2.77724   2.78140   2.78339   2.78437
 Alpha virt. eigenvalues --    2.78637   2.79019   2.79321   2.79463   2.79627
 Alpha virt. eigenvalues --    2.79676   2.79828   2.80030   2.80307   2.81081
 Alpha virt. eigenvalues --    2.82217   2.82329   2.82520   2.82613   2.82680
 Alpha virt. eigenvalues --    2.82886   2.83078   2.83494   2.83934   2.84851
 Alpha virt. eigenvalues --    2.84888   2.85262   2.85442   2.85740   2.85853
 Alpha virt. eigenvalues --    2.85933   2.86102   2.86340   2.87258   2.87483
 Alpha virt. eigenvalues --    2.87671   2.88336   2.88488   2.88517   2.88651
 Alpha virt. eigenvalues --    2.88703   2.89534   2.89541   2.89610   2.90479
 Alpha virt. eigenvalues --    2.91084   2.91194   2.92159   2.92223   2.92329
 Alpha virt. eigenvalues --    2.92870   2.92935   2.92958   2.93145   2.93238
 Alpha virt. eigenvalues --    2.93664   2.94246   2.94539   2.94592   2.94733
 Alpha virt. eigenvalues --    2.94832   2.94975   2.95215   2.95342   2.95716
 Alpha virt. eigenvalues --    2.95808   2.96076   2.96162   2.96356   2.96483
 Alpha virt. eigenvalues --    2.96557   2.96711   2.96774   2.97165   2.97303
 Alpha virt. eigenvalues --    2.97467   2.98037   2.98186   2.98248   2.99031
 Alpha virt. eigenvalues --    2.99091   2.99134   2.99543   2.99656   2.99822
 Alpha virt. eigenvalues --    2.99983   3.00241   3.00367   3.00634   3.00725
 Alpha virt. eigenvalues --    3.01418   3.01604   3.01641   3.02110   3.02201
 Alpha virt. eigenvalues --    3.02461   3.02783   3.03163   3.03904   3.07439
 Alpha virt. eigenvalues --    3.08070   3.08677   3.08938   3.09000   3.09416
 Alpha virt. eigenvalues --    3.09632   3.09756   3.09925   3.10129   3.14241
 Alpha virt. eigenvalues --    3.14350   3.14449   3.14780   3.14947   3.15366
 Alpha virt. eigenvalues --    3.16594   3.16691   3.16991   3.22265   3.27541
 Alpha virt. eigenvalues --    3.29490   3.29585   3.30222   3.43385   3.43713
 Alpha virt. eigenvalues --    3.44313   3.45302   3.45452   3.47168   3.47211
 Alpha virt. eigenvalues --    3.48163   3.48572   3.48669   3.49443   3.49732
 Alpha virt. eigenvalues --    3.50080   3.53538   3.54206   3.54704   3.55836
 Alpha virt. eigenvalues --    3.56219   3.56691   3.56966   3.57230   3.57430
 Alpha virt. eigenvalues --    3.57595   3.57739   3.57930   3.59044   3.59643
 Alpha virt. eigenvalues --    3.59904   3.61441   3.61820   3.61850   3.62512
 Alpha virt. eigenvalues --    3.62877   3.63501   3.63795   3.64375   3.64664
 Alpha virt. eigenvalues --    3.73031   3.76977  68.66308  68.67403  68.68377
 Alpha virt. eigenvalues --   68.70367  68.74641  68.75705  68.83778  68.84738
 Alpha virt. eigenvalues --   68.85518  68.87638  68.88838  68.90116 576.24769
 Alpha virt. eigenvalues --  576.25841 576.26795 576.28740 576.33022 576.34060
 Alpha virt. eigenvalues --  576.41990 576.42931 576.43685 576.45717 576.46887
 Alpha virt. eigenvalues --  576.48153
  Beta  occ. eigenvalues -- -197.10925-129.99095-129.99062-129.99044-101.62583
  Beta  occ. eigenvalues --  -22.43340 -19.28542 -19.28509 -19.28451 -19.28422
  Beta  occ. eigenvalues --  -19.28394 -19.28374 -19.28357 -19.28353 -19.28347
  Beta  occ. eigenvalues --  -19.28275 -19.28259 -19.28165 -19.26946 -19.26920
  Beta  occ. eigenvalues --  -19.26913 -19.26860 -19.26848 -19.26834 -19.26833
  Beta  occ. eigenvalues --  -19.26830 -19.26817 -19.26809 -19.26807 -19.26790
  Beta  occ. eigenvalues --  -19.26781 -19.26773 -19.26764 -19.26762 -19.26759
  Beta  occ. eigenvalues --  -19.26755 -19.26746 -19.26732 -19.26720 -19.26717
  Beta  occ. eigenvalues --  -19.26652 -19.26614 -19.24748 -19.24716 -19.24685
  Beta  occ. eigenvalues --  -19.24659 -18.93835 -18.91638 -18.91583 -13.36505
  Beta  occ. eigenvalues --  -13.36472 -13.36446 -10.69432 -10.69428 -10.69426
  Beta  occ. eigenvalues --  -10.69399 -10.69395 -10.69394 -10.69375 -10.69371
  Beta  occ. eigenvalues --  -10.69365 -10.33295 -10.32304 -10.31932 -10.31139
  Beta  occ. eigenvalues --  -10.31126 -10.31075 -10.30529 -10.30454  -9.53042
  Beta  occ. eigenvalues --   -7.28890  -7.27441  -7.27436  -3.21129  -3.21095
  Beta  occ. eigenvalues --   -3.21069  -3.21043  -3.21038  -3.21021  -3.21010
  Beta  occ. eigenvalues --   -3.21008  -3.20997  -3.20875  -3.20870  -3.20838
  Beta  occ. eigenvalues --   -2.74804  -1.85355  -1.85290  -1.85280  -1.85250
  Beta  occ. eigenvalues --   -1.85145  -1.85074  -1.85059  -1.85041  -1.85025
  Beta  occ. eigenvalues --   -1.85013  -1.85002  -1.84944  -1.84394  -1.84284
  Beta  occ. eigenvalues --   -1.84269  -1.84253  -1.84219  -1.84209  -1.84152
  Beta  occ. eigenvalues --   -1.84137  -1.84109  -1.84101  -1.84072  -1.84060
  Beta  occ. eigenvalues --   -1.83964  -1.83922  -1.83884  -1.83877  -1.83863
  Beta  occ. eigenvalues --   -1.83832  -1.83809  -1.83798  -1.83789  -1.83695
  Beta  occ. eigenvalues --   -1.83683  -1.83676  -1.80686  -1.75981  -1.75859
  Beta  occ. eigenvalues --   -1.50209  -1.50178  -1.50158  -1.08615  -1.06989
  Beta  occ. eigenvalues --   -1.06944  -1.06899  -1.06020  -1.06006  -1.05982
  Beta  occ. eigenvalues --   -1.04586  -1.04577  -1.04565  -1.03995  -1.03983
  Beta  occ. eigenvalues --   -1.03662  -1.03351  -1.03308  -1.03292  -1.03031
  Beta  occ. eigenvalues --   -1.02995  -1.02255  -1.02216  -1.02211  -1.02093
  Beta  occ. eigenvalues --   -1.02007  -1.01970  -1.01906  -1.01882  -1.01771
  Beta  occ. eigenvalues --   -1.01763  -1.01744  -1.01623  -1.01580  -1.01555
  Beta  occ. eigenvalues --   -1.01306  -1.00785  -1.00755  -1.00695  -1.00688
  Beta  occ. eigenvalues --   -0.99885  -0.99830  -0.99783  -0.96423  -0.89949
  Beta  occ. eigenvalues --   -0.85656  -0.85622  -0.85611  -0.85502  -0.85484
  Beta  occ. eigenvalues --   -0.85466  -0.85463  -0.85463  -0.85419  -0.84690
  Beta  occ. eigenvalues --   -0.84363  -0.82710  -0.72188  -0.69747  -0.65324
  Beta  occ. eigenvalues --   -0.62343  -0.61733  -0.61665  -0.61640  -0.60802
  Beta  occ. eigenvalues --   -0.58979  -0.58962  -0.58940  -0.58809  -0.58800
  Beta  occ. eigenvalues --   -0.58773  -0.58754  -0.58690  -0.58563  -0.57358
  Beta  occ. eigenvalues --   -0.57213  -0.57167  -0.57016  -0.56927  -0.56513
  Beta  occ. eigenvalues --   -0.56431  -0.56388  -0.55847  -0.55635  -0.55347
  Beta  occ. eigenvalues --   -0.55338  -0.55320  -0.54662  -0.54152  -0.54127
  Beta  occ. eigenvalues --   -0.53945  -0.53689  -0.53648  -0.53618  -0.52802
  Beta  occ. eigenvalues --   -0.52661  -0.52596  -0.52486  -0.52461  -0.51465
  Beta  occ. eigenvalues --   -0.51453  -0.51443  -0.51316  -0.51245  -0.50988
  Beta  occ. eigenvalues --   -0.50565  -0.50478  -0.50466  -0.50340  -0.50249
  Beta  occ. eigenvalues --   -0.50169  -0.50033  -0.50020  -0.49959  -0.49692
  Beta  occ. eigenvalues --   -0.49625  -0.49571  -0.49495  -0.49473  -0.49280
  Beta  occ. eigenvalues --   -0.49213  -0.49198  -0.49118  -0.49086  -0.49007
  Beta  occ. eigenvalues --   -0.48703  -0.48544  -0.48526  -0.48455  -0.47821
  Beta  occ. eigenvalues --   -0.47602  -0.47571  -0.46044  -0.45907  -0.45872
  Beta  occ. eigenvalues --   -0.45818  -0.45674  -0.45571  -0.45225  -0.45165
  Beta  occ. eigenvalues --   -0.45150  -0.45052  -0.44776  -0.44579  -0.44473
  Beta  occ. eigenvalues --   -0.44422  -0.44413  -0.44278  -0.44192  -0.44165
  Beta  occ. eigenvalues --   -0.43462  -0.43210  -0.42491  -0.42455  -0.42405
  Beta  occ. eigenvalues --   -0.42291  -0.42254  -0.42145  -0.42130  -0.41627
  Beta  occ. eigenvalues --   -0.41605  -0.41573  -0.41388  -0.41040  -0.40944
  Beta  occ. eigenvalues --   -0.40753  -0.40699  -0.40669  -0.40352  -0.40339
  Beta  occ. eigenvalues --   -0.40305  -0.40156  -0.40145  -0.40133  -0.39800
  Beta  occ. eigenvalues --   -0.39616  -0.39367  -0.39167  -0.39087  -0.39081
  Beta  occ. eigenvalues --   -0.38895  -0.38842  -0.38810  -0.38750  -0.38703
  Beta  occ. eigenvalues --   -0.38651  -0.38301  -0.38266  -0.38218  -0.37703
  Beta  occ. eigenvalues --   -0.37216  -0.37174  -0.35719  -0.35675  -0.33941
  Beta  occ. eigenvalues --   -0.30886
  Beta virt. eigenvalues --   -0.06404  -0.06344  -0.04896  -0.04860  -0.04760
  Beta virt. eigenvalues --   -0.01514  -0.01410  -0.01372  -0.01157  -0.00922
  Beta virt. eigenvalues --   -0.00916  -0.00884  -0.00150  -0.00081  -0.00043
  Beta virt. eigenvalues --    0.00675   0.00716   0.00739   0.00917   0.01002
  Beta virt. eigenvalues --    0.01562   0.01818   0.01834   0.01876   0.02495
  Beta virt. eigenvalues --    0.02766   0.02820   0.02843   0.03509   0.03664
  Beta virt. eigenvalues --    0.03770   0.04001   0.04033   0.04307   0.04319
  Beta virt. eigenvalues --    0.04385   0.04400   0.04571   0.05025   0.05097
  Beta virt. eigenvalues --    0.05589   0.06463   0.07119   0.08494   0.08534
  Beta virt. eigenvalues --    0.08571   0.08649   0.09334   0.09423   0.09607
  Beta virt. eigenvalues --    0.09847   0.09916   0.10032   0.10050   0.10087
  Beta virt. eigenvalues --    0.10138   0.10341   0.10464   0.10907   0.10947
  Beta virt. eigenvalues --    0.11449   0.11611   0.11682   0.11962   0.12251
  Beta virt. eigenvalues --    0.12443   0.12488   0.12549   0.12590   0.13320
  Beta virt. eigenvalues --    0.13406   0.13594   0.14050   0.14292   0.14832
  Beta virt. eigenvalues --    0.14960   0.15049   0.15216   0.15345   0.15917
  Beta virt. eigenvalues --    0.16106   0.16722   0.17048   0.17750   0.17895
  Beta virt. eigenvalues --    0.18313   0.18435   0.18646   0.18768   0.18955
  Beta virt. eigenvalues --    0.19346   0.19415   0.19505   0.19590   0.19682
  Beta virt. eigenvalues --    0.19933   0.20016   0.20407   0.20689   0.20981
  Beta virt. eigenvalues --    0.21146   0.21323   0.21364   0.21609   0.21661
  Beta virt. eigenvalues --    0.21731   0.21953   0.22015   0.22216   0.22312
  Beta virt. eigenvalues --    0.22347   0.22797   0.23154   0.23249   0.23332
  Beta virt. eigenvalues --    0.23408   0.23577   0.23753   0.23953   0.24226
  Beta virt. eigenvalues --    0.24271   0.24532   0.24667   0.24989   0.25117
  Beta virt. eigenvalues --    0.25326   0.25480   0.25537   0.26225   0.26637
  Beta virt. eigenvalues --    0.26841   0.27118   0.27348   0.27656   0.27882
  Beta virt. eigenvalues --    0.27995   0.28428   0.28680   0.28799   0.29155
  Beta virt. eigenvalues --    0.29307   0.29387   0.29454   0.29593   0.29773
  Beta virt. eigenvalues --    0.30055   0.30412   0.30730   0.31286   0.31531
  Beta virt. eigenvalues --    0.31882   0.32201   0.32332   0.32800   0.33172
  Beta virt. eigenvalues --    0.33603   0.34469   0.35291   0.36950   0.37050
  Beta virt. eigenvalues --    0.38192   0.38759   0.38893   0.39407   0.39625
  Beta virt. eigenvalues --    0.40356   0.41368   0.41822   0.41927   0.42041
  Beta virt. eigenvalues --    0.42256   0.42515   0.42751   0.43424   0.44038
  Beta virt. eigenvalues --    0.44232   0.44479   0.44899   0.45245   0.45546
  Beta virt. eigenvalues --    0.45782   0.45856   0.45884   0.46514   0.46703
  Beta virt. eigenvalues --    0.47002   0.47329   0.47897   0.47960   0.48261
  Beta virt. eigenvalues --    0.48354   0.48422   0.48837   0.49059   0.49163
  Beta virt. eigenvalues --    0.49488   0.49828   0.49891   0.49954   0.50033
  Beta virt. eigenvalues --    0.50121   0.50372   0.50513   0.50697   0.50708
  Beta virt. eigenvalues --    0.51198   0.51275   0.51579   0.51815   0.52053
  Beta virt. eigenvalues --    0.52500   0.52678   0.52800   0.53055   0.53291
  Beta virt. eigenvalues --    0.53743   0.54098   0.54276   0.54476   0.54702
  Beta virt. eigenvalues --    0.54805   0.55387   0.55962   0.56029   0.56451
  Beta virt. eigenvalues --    0.56578   0.56950   0.57074   0.57157   0.57528
  Beta virt. eigenvalues --    0.57990   0.58731   0.58809   0.58969   0.59467
  Beta virt. eigenvalues --    0.59941   0.60587   0.60725   0.60988   0.61610
  Beta virt. eigenvalues --    0.61952   0.62702   0.63558   0.64112   0.64630
  Beta virt. eigenvalues --    0.65054   0.65320   0.66392   0.66538   0.66610
  Beta virt. eigenvalues --    0.67808   0.68182   0.68337   0.68733   0.68998
  Beta virt. eigenvalues --    0.69662   0.70087   0.70609   0.71287   0.71650
  Beta virt. eigenvalues --    0.71976   0.72240   0.72666   0.72756   0.73081
  Beta virt. eigenvalues --    0.73174   0.73345   0.73445   0.73632   0.73713
  Beta virt. eigenvalues --    0.74010   0.74194   0.74905   0.75588   0.75752
  Beta virt. eigenvalues --    0.76134   0.77017   0.77140   0.77937   0.78271
  Beta virt. eigenvalues --    0.78993   0.79242   0.80009   0.80586   0.80651
  Beta virt. eigenvalues --    0.81100   0.81193   0.82053   0.82140   0.82294
  Beta virt. eigenvalues --    0.83064   0.83336   0.83846   0.83924   0.84240
  Beta virt. eigenvalues --    0.84621   0.85008   0.85443   0.86406   0.87108
  Beta virt. eigenvalues --    0.87214   0.88094   0.88447   0.89394   0.89657
  Beta virt. eigenvalues --    0.89958   0.90264   0.90407   0.90898   0.91005
  Beta virt. eigenvalues --    0.91619   0.91805   0.92050   0.92203   0.92434
  Beta virt. eigenvalues --    0.92668   0.93243   0.93339   0.93428   0.93843
  Beta virt. eigenvalues --    0.94954   0.95282   0.95518   0.95883   0.96499
  Beta virt. eigenvalues --    0.96956   0.97230   0.97691   0.97833   0.98448
  Beta virt. eigenvalues --    0.99143   0.99380   0.99591   0.99870   1.00282
  Beta virt. eigenvalues --    1.00341   1.00559   1.00671   1.00865   1.01020
  Beta virt. eigenvalues --    1.01172   1.01314   1.01760   1.02179   1.02518
  Beta virt. eigenvalues --    1.02799   1.02936   1.03514   1.03835   1.03939
  Beta virt. eigenvalues --    1.04138   1.04304   1.04779   1.04889   1.05116
  Beta virt. eigenvalues --    1.05193   1.05424   1.05635   1.06052   1.06513
  Beta virt. eigenvalues --    1.06975   1.07018   1.07202   1.07441   1.07569
  Beta virt. eigenvalues --    1.07740   1.07894   1.08348   1.08737   1.08936
  Beta virt. eigenvalues --    1.08992   1.09342   1.09518   1.10153   1.10768
  Beta virt. eigenvalues --    1.11159   1.11272   1.11945   1.12107   1.12301
  Beta virt. eigenvalues --    1.12464   1.12735   1.13029   1.13073   1.13280
  Beta virt. eigenvalues --    1.13437   1.13593   1.13821   1.13866   1.14177
  Beta virt. eigenvalues --    1.14507   1.14848   1.15198   1.15383   1.15997
  Beta virt. eigenvalues --    1.16298   1.16599   1.17441   1.17838   1.18470
  Beta virt. eigenvalues --    1.18982   1.19647   1.19750   1.20073   1.20350
  Beta virt. eigenvalues --    1.20989   1.21457   1.22522   1.22936   1.23020
  Beta virt. eigenvalues --    1.23088   1.23266   1.23645   1.23802   1.24597
  Beta virt. eigenvalues --    1.25296   1.25941   1.27293   1.27765   1.27885
  Beta virt. eigenvalues --    1.28538   1.29407   1.29625   1.30180   1.30489
  Beta virt. eigenvalues --    1.30569   1.30787   1.31098   1.31246   1.31974
  Beta virt. eigenvalues --    1.32119   1.32161   1.32311   1.32356   1.32486
  Beta virt. eigenvalues --    1.32688   1.32824   1.33153   1.33329   1.34291
  Beta virt. eigenvalues --    1.34886   1.35008   1.35070   1.35481   1.35554
  Beta virt. eigenvalues --    1.35770   1.35898   1.36172   1.36455   1.36533
  Beta virt. eigenvalues --    1.36879   1.36994   1.37744   1.37911   1.37994
  Beta virt. eigenvalues --    1.38262   1.38452   1.38796   1.38855   1.38898
  Beta virt. eigenvalues --    1.39077   1.39345   1.39567   1.39785   1.39877
  Beta virt. eigenvalues --    1.40208   1.40460   1.40561   1.40863   1.41151
  Beta virt. eigenvalues --    1.41236   1.41304   1.41582   1.41728   1.41766
  Beta virt. eigenvalues --    1.42090   1.42352   1.42475   1.42598   1.42631
  Beta virt. eigenvalues --    1.43077   1.43292   1.43561   1.43574   1.43961
  Beta virt. eigenvalues --    1.44519   1.44727   1.45265   1.45376   1.45519
  Beta virt. eigenvalues --    1.45678   1.46210   1.46292   1.46848   1.47313
  Beta virt. eigenvalues --    1.47749   1.48152   1.49678   1.49723   1.50008
  Beta virt. eigenvalues --    1.50248   1.50739   1.51798   1.52187   1.52290
  Beta virt. eigenvalues --    1.52494   1.53112   1.53323   1.53895   1.55392
  Beta virt. eigenvalues --    1.55655   1.57361   1.58179   1.58243   1.58372
  Beta virt. eigenvalues --    1.58675   1.58966   1.59059   1.59369   1.60132
  Beta virt. eigenvalues --    1.60578   1.60939   1.61459   1.61649   1.62069
  Beta virt. eigenvalues --    1.62165   1.62359   1.63012   1.63279   1.63939
  Beta virt. eigenvalues --    1.64646   1.64889   1.65000   1.65522   1.65742
  Beta virt. eigenvalues --    1.65971   1.66993   1.68192   1.68542   1.69416
  Beta virt. eigenvalues --    1.69945   1.70591   1.70892   1.72298   1.73118
  Beta virt. eigenvalues --    1.73283   1.73534   1.74203   1.74326   1.74904
  Beta virt. eigenvalues --    1.75723   1.76352   1.77674   1.77884   1.78050
  Beta virt. eigenvalues --    1.78434   1.78798   1.79198   1.79427   1.79817
  Beta virt. eigenvalues --    1.80042   1.81122   1.81415   1.81878   1.82213
  Beta virt. eigenvalues --    1.82340   1.82899   1.83506   1.83777   1.84196
  Beta virt. eigenvalues --    1.84407   1.84750   1.84865   1.85523   1.85995
  Beta virt. eigenvalues --    1.86088   1.86610   1.86727   1.87360   1.87751
  Beta virt. eigenvalues --    1.88071   1.88407   1.88672   1.88858   1.89093
  Beta virt. eigenvalues --    1.89663   1.90337   1.91391   1.91799   1.92478
  Beta virt. eigenvalues --    1.92965   1.93173   1.93626   1.93783   1.94773
  Beta virt. eigenvalues --    1.96134   1.96282   1.97736   1.97887   1.98384
  Beta virt. eigenvalues --    1.98983   2.01488   2.02078   2.02159   2.02301
  Beta virt. eigenvalues --    2.04796   2.05253   2.06985   2.07197   2.08230
  Beta virt. eigenvalues --    2.11135   2.11358   2.11813   2.12138   2.13084
  Beta virt. eigenvalues --    2.13799   2.14858   2.14961   2.15699   2.17541
  Beta virt. eigenvalues --    2.18116   2.18435   2.19157   2.19242   2.20417
  Beta virt. eigenvalues --    2.20816   2.20979   2.21770   2.24336   2.26506
  Beta virt. eigenvalues --    2.26680   2.27255   2.27831   2.29489   2.30098
  Beta virt. eigenvalues --    2.30708   2.31037   2.31450   2.32890   2.33331
  Beta virt. eigenvalues --    2.33704   2.34307   2.34456   2.35052   2.35887
  Beta virt. eigenvalues --    2.36410   2.38478   2.39352   2.41567   2.42718
  Beta virt. eigenvalues --    2.44311   2.47340   2.48826   2.53882   2.64358
  Beta virt. eigenvalues --    2.66413   2.66992   2.67017   2.67146   2.67683
  Beta virt. eigenvalues --    2.68823   2.69190   2.69233   2.69320   2.69523
  Beta virt. eigenvalues --    2.69566   2.69694   2.69815   2.69869   2.70079
  Beta virt. eigenvalues --    2.70127   2.70147   2.70485   2.70678   2.70759
  Beta virt. eigenvalues --    2.70786   2.70867   2.70895   2.71316   2.71586
  Beta virt. eigenvalues --    2.71750   2.71995   2.72865   2.72888   2.73020
  Beta virt. eigenvalues --    2.73190   2.73360   2.73440   2.73483   2.73601
  Beta virt. eigenvalues --    2.73786   2.74320   2.74388   2.74410   2.75433
  Beta virt. eigenvalues --    2.75485   2.75571   2.75659   2.75694   2.75727
  Beta virt. eigenvalues --    2.75888   2.75954   2.76037   2.76086   2.76184
  Beta virt. eigenvalues --    2.76248   2.76350   2.76450   2.76936   2.77433
  Beta virt. eigenvalues --    2.77561   2.77763   2.78163   2.78368   2.78457
  Beta virt. eigenvalues --    2.78657   2.79032   2.79355   2.79494   2.79613
  Beta virt. eigenvalues --    2.79692   2.79826   2.80014   2.80241   2.81084
  Beta virt. eigenvalues --    2.82269   2.82338   2.82563   2.82638   2.82677
  Beta virt. eigenvalues --    2.82908   2.83126   2.83486   2.83925   2.84866
  Beta virt. eigenvalues --    2.84903   2.85284   2.85450   2.85738   2.85773
  Beta virt. eigenvalues --    2.85889   2.86060   2.86342   2.87282   2.87511
  Beta virt. eigenvalues --    2.87699   2.88340   2.88489   2.88520   2.88654
  Beta virt. eigenvalues --    2.88705   2.89545   2.89566   2.89621   2.90482
  Beta virt. eigenvalues --    2.91101   2.91216   2.92169   2.92230   2.92337
  Beta virt. eigenvalues --    2.92896   2.92953   2.92974   2.93170   2.93267
  Beta virt. eigenvalues --    2.93687   2.94235   2.94549   2.94581   2.94650
  Beta virt. eigenvalues --    2.94825   2.94989   2.95209   2.95341   2.95726
  Beta virt. eigenvalues --    2.95822   2.96094   2.96185   2.96362   2.96498
  Beta virt. eigenvalues --    2.96560   2.96657   2.96753   2.97176   2.97313
  Beta virt. eigenvalues --    2.97472   2.98051   2.98200   2.98255   2.98846
  Beta virt. eigenvalues --    2.99081   2.99124   2.99564   2.99687   2.99858
  Beta virt. eigenvalues --    3.00025   3.00259   3.00443   3.00693   3.00790
  Beta virt. eigenvalues --    3.01435   3.01613   3.01652   3.02132   3.02239
  Beta virt. eigenvalues --    3.02475   3.02801   3.03177   3.03914   3.07443
  Beta virt. eigenvalues --    3.08347   3.08516   3.08986   3.09027   3.09457
  Beta virt. eigenvalues --    3.09785   3.10113   3.10260   3.10841   3.14251
  Beta virt. eigenvalues --    3.14355   3.14455   3.14699   3.14917   3.15380
  Beta virt. eigenvalues --    3.16604   3.16702   3.17062   3.22195   3.28020
  Beta virt. eigenvalues --    3.30067   3.30646   3.30757   3.43388   3.43718
  Beta virt. eigenvalues --    3.44311   3.45105   3.45452   3.47172   3.47217
  Beta virt. eigenvalues --    3.48167   3.48574   3.48672   3.49444   3.49734
  Beta virt. eigenvalues --    3.50083   3.53547   3.54224   3.54724   3.55844
  Beta virt. eigenvalues --    3.56228   3.56707   3.56980   3.57248   3.57466
  Beta virt. eigenvalues --    3.57614   3.57767   3.57949   3.59054   3.59647
  Beta virt. eigenvalues --    3.59909   3.61456   3.61827   3.61860   3.62515
  Beta virt. eigenvalues --    3.62881   3.63506   3.63796   3.64379   3.64669
  Beta virt. eigenvalues --    3.72959   3.77206  68.66310  68.67404  68.68379
  Beta virt. eigenvalues --   68.70368  68.74642  68.75707  68.83779  68.84739
  Beta virt. eigenvalues --   68.85520  68.87640  68.88839  68.90118 576.24799
  Beta virt. eigenvalues --  576.25867 576.26821 576.28767 576.33037 576.34101
  Beta virt. eigenvalues --  576.42020 576.42953 576.43719 576.45748 576.46909
  Beta virt. eigenvalues --  576.48186
          Condensed to atoms (all electrons):
          Atomic-Atomic Spin Densities.
 Mulliken charges and spin densities:
               1          2
     1  Cl  -0.348120  -0.608116
     2  C   -0.035073  -0.096128
     3  C    0.012391   0.057435
     4  C   -0.034862  -0.092048
     5  C   -0.031495   0.058663
     6  C    0.007600  -0.115867
     7  C   -0.047896   0.058739
     8  H    0.051014   0.004204
     9  H    0.050862   0.003947
    10  H    0.056051  -0.002093
    11  H    0.057060   0.005089
    12  H    0.054651  -0.002066
    13  C    0.006010  -0.261482
    14  C   -0.044814  -0.018860
    15  H    0.076848   0.010776
    16  H    0.095014   0.001344
    17  H    0.087699  -0.001863
    18  O   -0.672887  -0.000568
    19  O   -0.672410  -0.000531
    20  O   -0.666719  -0.001620
    21  O   -0.673380  -0.000542
    22  W    1.718740   0.000359
    23  W    1.663620   0.000482
    24  W    1.675189   0.000169
    25  W    1.684019   0.000213
    26  W    1.664316   0.002699
    27  W    1.711745   0.002429
    28  W    1.613057   0.003351
    29  W    1.674547   0.002786
    30  O   -0.350062  -0.000530
    31  O   -0.394157  -0.000572
    32  O   -0.396305  -0.000613
    33  O   -0.388985  -0.000570
    34  O   -0.673353  -0.000279
    35  O   -0.678880  -0.000022
    36  O   -0.670993  -0.000127
    37  O   -0.673740  -0.000192
    38  O   -0.397939   0.002109
    39  O   -0.395090   0.002144
    40  O   -0.340357   0.000194
    41  O   -0.395226   0.002111
    42  O   -0.678490   0.000029
    43  O   -0.673045   0.000129
    44  O   -0.669878   0.000251
    45  O   -0.674623   0.000075
    46  O   -0.398404   0.002267
    47  O   -0.352158   0.002153
    48  O   -0.395239   0.001818
    49  O   -0.392353   0.002310
    50  W    1.661514   0.002776
    51  W    1.667208   0.002673
    52  W    1.678109   0.003914
    53  W    1.672908   0.002623
    54  O   -0.724281   0.000111
    55  O   -0.707262   0.000020
    56  O   -0.723220   0.000161
    57  O   -0.722131   0.000072
    58  O   -0.704846   0.000067
    59  O   -0.725028   0.000152
    60  O   -0.723700   0.000207
    61  O   -0.719491   0.000195
    62  O   -0.724221  -0.000186
    63  O   -0.707182  -0.000061
    64  O   -0.724723  -0.000208
    65  O   -0.725081  -0.000210
    66  O   -0.884991   0.005285
    67  O   -0.885035   0.007285
    68  O   -0.881967   0.007054
    69  O   -0.890411   0.006407
    70  K    0.849672   0.000191
    71  K    0.849495   0.000213
    72  K    0.846659   0.000214
    73  V    1.204506   0.937453
 Sum of Mulliken charges =  -1.00000   0.00000
 Mulliken charges and spin densities with hydrogens summed into heavy atoms:
               1          2
     1  Cl  -0.348120  -0.608116
     2  C    0.015940  -0.091923
     3  C    0.012391   0.057435
     4  C    0.016000  -0.088100
     5  C    0.024556   0.056571
     6  C    0.064660  -0.110778
     7  C    0.006755   0.056673
    13  C    0.082857  -0.250706
    14  C    0.137899  -0.019379
    18  O   -0.672887  -0.000568
    19  O   -0.672410  -0.000531
    20  O   -0.666719  -0.001620
    21  O   -0.673380  -0.000542
    22  W    1.718740   0.000359
    23  W    1.663620   0.000482
    24  W    1.675189   0.000169
    25  W    1.684019   0.000213
    26  W    1.664316   0.002699
    27  W    1.711745   0.002429
    28  W    1.613057   0.003351
    29  W    1.674547   0.002786
    30  O   -0.350062  -0.000530
    31  O   -0.394157  -0.000572
    32  O   -0.396305  -0.000613
    33  O   -0.388985  -0.000570
    34  O   -0.673353  -0.000279
    35  O   -0.678880  -0.000022
    36  O   -0.670993  -0.000127
    37  O   -0.673740  -0.000192
    38  O   -0.397939   0.002109
    39  O   -0.395090   0.002144
    40  O   -0.340357   0.000194
    41  O   -0.395226   0.002111
    42  O   -0.678490   0.000029
    43  O   -0.673045   0.000129
    44  O   -0.669878   0.000251
    45  O   -0.674623   0.000075
    46  O   -0.398404   0.002267
    47  O   -0.352158   0.002153
    48  O   -0.395239   0.001818
    49  O   -0.392353   0.002310
    50  W    1.661514   0.002776
    51  W    1.667208   0.002673
    52  W    1.678109   0.003914
    53  W    1.672908   0.002623
    54  O   -0.724281   0.000111
    55  O   -0.707262   0.000020
    56  O   -0.723220   0.000161
    57  O   -0.722131   0.000072
    58  O   -0.704846   0.000067
    59  O   -0.725028   0.000152
    60  O   -0.723700   0.000207
    61  O   -0.719491   0.000195
    62  O   -0.724221  -0.000186
    63  O   -0.707182  -0.000061
    64  O   -0.724723  -0.000208
    65  O   -0.725081  -0.000210
    66  O   -0.884991   0.005285
    67  O   -0.885035   0.007285
    68  O   -0.881967   0.007054
    69  O   -0.890411   0.006407
    70  K    0.849672   0.000191
    71  K    0.849495   0.000213
    72  K    0.846659   0.000214
    73  V    1.204506   0.937453
 Electronic spatial extent (au):  <R**2>=         316821.9587
 Charge=             -1.0000 electrons
 Dipole moment (field-independent basis, Debye):
    X=             28.1469    Y=            -13.6034    Z=            -30.6235  Tot=             43.7619
 Quadrupole moment (field-independent basis, Debye-Ang):
   XX=           -759.4609   YY=           -711.1949   ZZ=           -779.9757
   XY=            126.4752   XZ=            174.4874   YZ=            -92.0514
 Traceless Quadrupole moment (field-independent basis, Debye-Ang):
   XX=             -9.2504   YY=             39.0156   ZZ=            -29.7652
   XY=            126.4752   XZ=            174.4874   YZ=            -92.0514
 Octapole moment (field-independent basis, Debye-Ang**2):
  XXX=          10141.7628  YYY=            849.1823  ZZZ=         -17390.9887  XYY=           4133.1352
  XXY=           -587.9752  XXZ=          -6021.6895  XZZ=           4024.8592  YZZ=           -109.0694
  YYZ=          -7102.5230  XYZ=           1389.8946
 Hexadecapole moment (field-independent basis, Debye-Ang**3):
 XXXX=        -124216.5561 YYYY=         -40823.3472 ZZZZ=        -325248.0842 XXXY=           7485.2653
 XXXZ=          85897.1020 YYYX=           3088.2463 YYYZ=           7122.1898 ZZZX=          89587.9716
 ZZZY=           8108.3494 XXYY=         -36000.0556 XXZZ=         -69399.3558 YYZZ=         -78905.1622
 XXYZ=         -10207.7405 YYXZ=          40796.1830 ZZXY=          14261.2196
 N-N= 2.097677702919D+04 E-N=-5.906303538784D+04  KE= 6.765637975933D+03
                          Isotropic Fermi Contact Couplings
        Atom                 a.u.       MegaHertz       Gauss      10(-4) cm-1
     1  Cl(35)            -0.09712     -21.29176      -7.59743      -7.10217
     2  C(13)             -0.01531      -8.60676      -3.07110      -2.87091
     3  C(13)              0.01839      10.33459       3.68764       3.44725
     4  C(13)             -0.01499      -8.42458      -3.00610      -2.81014
     5  C(13)              0.01315       7.39093       2.63727       2.46535
     6  C(13)             -0.01878     -10.55538      -3.76642      -3.52090
     7  C(13)              0.01323       7.43449       2.65281       2.47988
     8  H(1)               0.00132       2.94584       1.05115       0.98263
     9  H(1)               0.00128       2.85289       1.01798       0.95162
    10  H(1)              -0.00062      -1.38136      -0.49290      -0.46077
    11  H(1)               0.00154       3.45276       1.23203       1.15172
    12  H(1)              -0.00061      -1.36154      -0.48583      -0.45416
    13  C(13)             -0.03667     -20.61041      -7.35431      -6.87489
    14  C(13)             -0.02587     -14.53878      -5.18780      -4.84961
    15  H(1)               0.00338       7.55777       2.69680       2.52100
    16  H(1)               0.00067       1.49230       0.53249       0.49778
    17  H(1)              -0.00153      -3.42329      -1.22151      -1.14189
    18  O(17)             -0.00044       0.13486       0.04812       0.04498
    19  O(17)             -0.00042       0.12860       0.04589       0.04290
    20  O(17)             -0.00164       0.49651       0.17717       0.16562
    21  O(17)             -0.00044       0.13204       0.04712       0.04404
    22  W(183)             0.00000       0.00000       0.00000       0.00000
    23  W(183)             0.00000       0.00000       0.00000       0.00000
    24  W(183)             0.00000       0.00000       0.00000       0.00000
    25  W(183)             0.00000       0.00000       0.00000       0.00000
    26  W(183)             0.00000       0.00000       0.00000       0.00000
    27  W(183)             0.00000       0.00000       0.00000       0.00000
    28  W(183)             0.00000       0.00000       0.00000       0.00000
    29  W(183)             0.00000       0.00000       0.00000       0.00000
    30  O(17)             -0.00020       0.06121       0.02184       0.02042
    31  O(17)             -0.00024       0.07371       0.02630       0.02459
    32  O(17)             -0.00026       0.07900       0.02819       0.02635
    33  O(17)             -0.00023       0.07121       0.02541       0.02375
    34  O(17)             -0.00002       0.00613       0.00219       0.00205
    35  O(17)              0.00018      -0.05385      -0.01921      -0.01796
    36  O(17)              0.00013      -0.03977      -0.01419      -0.01327
    37  O(17)              0.00006      -0.01952      -0.00697      -0.00651
    38  O(17)              0.00196      -0.59556      -0.21251      -0.19866
    39  O(17)              0.00193      -0.58517      -0.20880      -0.19519
    40  O(17)             -0.00454       1.37631       0.49110       0.45909
    41  O(17)              0.00191      -0.57752      -0.20607      -0.19264
    42  O(17)              0.00023      -0.06917      -0.02468      -0.02307
    43  O(17)              0.00030      -0.09041      -0.03226      -0.03016
    44  O(17)              0.00044      -0.13308      -0.04749      -0.04439
    45  O(17)              0.00026      -0.07854      -0.02803      -0.02620
    46  O(17)              0.00217      -0.65756      -0.23463      -0.21934
    47  O(17)              0.00193      -0.58560      -0.20896      -0.19533
    48  O(17)              0.00062      -0.18877      -0.06736      -0.06297
    49  O(17)              0.00215      -0.65276      -0.23292      -0.21774
    50  W(183)             0.00000       0.00000       0.00000       0.00000
    51  W(183)             0.00000       0.00000       0.00000       0.00000
    52  W(183)             0.00000       0.00000       0.00000       0.00000
    53  W(183)             0.00000       0.00000       0.00000       0.00000
    54  O(17)              0.00015      -0.04650      -0.01659      -0.01551
    55  O(17)              0.00003      -0.00839      -0.00300      -0.00280
    56  O(17)              0.00022      -0.06692      -0.02388      -0.02232
    57  O(17)              0.00005      -0.01414      -0.00505      -0.00472
    58  O(17)              0.00015      -0.04628      -0.01651      -0.01544
    59  O(17)              0.00025      -0.07601      -0.02712      -0.02536
    60  O(17)              0.00032      -0.09801      -0.03497      -0.03269
    61  O(17)              0.00031      -0.09373      -0.03344      -0.03126
    62  O(17)             -0.00027       0.08223       0.02934       0.02743
    63  O(17)             -0.00020       0.06136       0.02190       0.02047
    64  O(17)             -0.00030       0.09105       0.03249       0.03037
    65  O(17)             -0.00031       0.09497       0.03389       0.03168
    66  O(17)             -0.00800       2.42484       0.86524       0.80884
    67  O(17)             -0.00691       2.09558       0.74776       0.69901
    68  O(17)             -0.00706       2.13847       0.76306       0.71332
    69  O(17)             -0.00751       2.27493       0.81175       0.75884
    70  K(39)             -0.00002      -0.00201      -0.00072      -0.00067
    71  K(39)             -0.00002      -0.00186      -0.00066      -0.00062
    72  K(39)             -0.00002      -0.00230      -0.00082      -0.00077
    73  V(51)              0.07028      41.38684      14.76785      13.80516
 --------------------------------------------------------
       Center         ----  Spin Dipole Couplings  ----
                      3XX-RR        3YY-RR        3ZZ-RR
 --------------------------------------------------------
     1   Atom        1.281877     -2.592461      1.310583
     2   Atom       -0.014696     -0.016514      0.031210
     3   Atom        0.004598      0.003540     -0.008138
     4   Atom       -0.016498     -0.020522      0.037020
     5   Atom        0.013334      0.005545     -0.018879
     6   Atom       -0.023759     -0.018037      0.041795
     7   Atom        0.010497      0.006579     -0.017076
     8   Atom       -0.001812     -0.002221      0.004033
     9   Atom        0.000290      0.000323     -0.000613
    10   Atom        0.001544      0.000676     -0.002220
    11   Atom        0.004325      0.000457     -0.004782
    12   Atom        0.000616     -0.000702      0.000086
    13   Atom       -0.137984      0.034737      0.103246
    14   Atom        0.009919     -0.045250      0.035331
    15   Atom       -0.002107      0.003648     -0.001541
    16   Atom        0.008779      0.000061     -0.008840
    17   Atom       -0.011318      0.002025      0.009293
    18   Atom        0.001346     -0.001283     -0.000063
    19   Atom        0.001812     -0.001735     -0.000077
    20   Atom       -0.001839     -0.000331      0.002170
    21   Atom       -0.000655      0.000697     -0.000042
    22   Atom       -0.002002      0.000536      0.001466
    23   Atom       -0.001845      0.000614      0.001231
    24   Atom       -0.002421      0.000999      0.001421
    25   Atom       -0.002103      0.000568      0.001535
    26   Atom        0.000425     -0.002224      0.001799
    27   Atom        0.000566     -0.002453      0.001887
    28   Atom        0.000949     -0.003074      0.002125
    29   Atom        0.000705     -0.002692      0.001987
    30   Atom       -0.000135      0.000280     -0.000145
    31   Atom        0.000036     -0.000012     -0.000024
    32   Atom       -0.000528      0.000587     -0.000059
    33   Atom       -0.000182      0.000233     -0.000052
    34   Atom        0.000046     -0.002031      0.001985
    35   Atom       -0.000278     -0.002673      0.002952
    36   Atom       -0.002225     -0.000436      0.002662
    37   Atom       -0.001945     -0.000606      0.002551
    38   Atom        0.006041     -0.003051     -0.002990
    39   Atom        0.006490     -0.003408     -0.003082
    40   Atom       -0.009487      0.009346      0.000142
    41   Atom       -0.004437      0.007797     -0.003360
    42   Atom        0.002626     -0.001089     -0.001537
    43   Atom        0.002906     -0.001102     -0.001803
    44   Atom       -0.004394      0.005688     -0.001294
    45   Atom       -0.003281      0.004779     -0.001498
    46   Atom       -0.000932      0.000808      0.000124
    47   Atom        0.001405     -0.002715      0.001310
    48   Atom        0.005226     -0.007423      0.002197
    49   Atom        0.004757     -0.004905      0.000149
    50   Atom        0.006121     -0.002783     -0.003337
    51   Atom        0.006453     -0.003160     -0.003293
    52   Atom       -0.002351      0.005066     -0.002715
    53   Atom       -0.002176      0.005570     -0.003394
    54   Atom       -0.003205     -0.001621      0.004825
    55   Atom       -0.002988     -0.001889      0.004877
    56   Atom       -0.001114     -0.004515      0.005630
    57   Atom       -0.001158     -0.003847      0.005004
    58   Atom       -0.004011      0.006435     -0.002424
    59   Atom       -0.003938      0.006769     -0.002831
    60   Atom        0.002727      0.000011     -0.002737
    61   Atom        0.002989     -0.000329     -0.002660
    62   Atom        0.000818      0.001073     -0.001891
    63   Atom        0.001098      0.000550     -0.001648
    64   Atom        0.005376     -0.003757     -0.001619
    65   Atom        0.005035     -0.003115     -0.001920
    66   Atom       -0.030185      0.000907      0.029278
    67   Atom       -0.034783     -0.002276      0.037059
    68   Atom       -0.061208      0.021667      0.039541
    69   Atom       -0.057225      0.026354      0.030870
    70   Atom       -0.000581      0.000559      0.000022
    71   Atom        0.000444     -0.000534      0.000090
    72   Atom        0.000788     -0.001000      0.000212
    73   Atom       -0.999363      0.248840      0.750523
 --------------------------------------------------------
                        XY            XZ            YZ
 --------------------------------------------------------
     1   Atom        1.496515      0.496646     -1.455825
     2   Atom        0.062033      0.029880     -0.029895
     3   Atom       -0.016725     -0.007494      0.011272
     4   Atom        0.061438      0.022869     -0.023689
     5   Atom       -0.031121     -0.014865      0.014081
     6   Atom        0.078244      0.033262     -0.028518
     7   Atom       -0.031466     -0.012513      0.015423
     8   Atom       -0.002937     -0.001466      0.000233
     9   Atom       -0.002236     -0.004041     -0.003409
    10   Atom       -0.000466     -0.001444      0.000851
    11   Atom        0.002169      0.002691      0.006006
    12   Atom       -0.001414      0.000404      0.002420
    13   Atom        0.158993      0.098237     -0.057900
    14   Atom        0.071187      0.042203     -0.049889
    15   Atom       -0.005072     -0.010438     -0.015033
    16   Atom       -0.000725      0.009093      0.003147
    17   Atom       -0.002506     -0.010359     -0.001752
    18   Atom        0.000448     -0.001641      0.000238
    19   Atom        0.000372      0.001942     -0.000564
    20   Atom        0.003066      0.000782     -0.000783
    21   Atom       -0.001109      0.001299     -0.001304
    22   Atom        0.002200     -0.002012     -0.004112
    23   Atom        0.002183      0.002252      0.003931
    24   Atom        0.002312      0.001874      0.004220
    25   Atom        0.001998     -0.002030     -0.004138
    26   Atom       -0.002092     -0.004579      0.002430
    27   Atom       -0.001896      0.004721     -0.002741
    28   Atom       -0.001488     -0.004670      0.002601
    29   Atom       -0.001730      0.004759     -0.002267
    30   Atom        0.000371     -0.000147     -0.000583
    31   Atom        0.000436      0.000638      0.000284
    32   Atom        0.000426     -0.000132      0.000797
    33   Atom        0.000278     -0.000087     -0.000634
    34   Atom        0.000582     -0.003383     -0.000801
    35   Atom        0.000868      0.004104      0.001059
    36   Atom       -0.000391     -0.001823      0.003890
    37   Atom       -0.000671      0.001529     -0.003319
    38   Atom        0.004650      0.003845      0.001681
    39   Atom        0.004644     -0.003726     -0.001770
    40   Atom        0.005749      0.004063     -0.005115
    41   Atom       -0.002462     -0.000572      0.003724
    42   Atom        0.003759     -0.002533     -0.001859
    43   Atom        0.004060      0.002737      0.001793
    44   Atom        0.000363      0.000071      0.003871
    45   Atom       -0.000390      0.000045     -0.003477
    46   Atom       -0.004689     -0.004587      0.005223
[...]
    Y1       15.63206  -0.01139   0.00000  -0.01136  -0.01537  15.61669
    Z1       19.92386  -0.00331   0.00000  -0.00350  -0.00604  19.91782
    X2      -15.77268   0.00181   0.00000  -0.00324  -0.00507 -15.77776
    Y2        8.03578   0.00131   0.00000   0.02213   0.01917   8.05495
    Z2       23.07973   0.00268   0.00000   0.00203   0.00056  23.08029
    X3      -17.27497   0.00068   0.00000  -0.02311  -0.02485 -17.29982
    Y3        7.43099   0.00328   0.00000   0.03469   0.03106   7.46205
    Z3       20.96943  -0.00509   0.00000   0.00772   0.00637  20.97580
    X4      -19.00036  -0.00240   0.00000  -0.01061  -0.01185 -19.01221
    Y4        5.41977  -0.00267   0.00000   0.01241   0.00840   5.42817
    Z4       21.19432  -0.00075   0.00000  -0.01311  -0.01413  21.18019
    X5      -19.28693  -0.00114   0.00000   0.00066  -0.00022 -19.28715
    Y5        4.12429   0.00005   0.00000   0.00286  -0.00089   4.12340
    Z5       23.46300  -0.00199   0.00000  -0.02064  -0.02145  23.44155
    X6      -17.82987   0.00036   0.00000   0.00985   0.00885 -17.82102
    Y6        4.79064   0.00026   0.00000   0.00134  -0.00174   4.78890
    Z6       25.55803  -0.00136   0.00000  -0.02388  -0.02483  25.53320
    X7      -16.05144   0.00157   0.00000   0.00900   0.00753 -16.04390
    Y7        6.72965   0.00189   0.00000   0.00638   0.00369   6.73334
    Z7       25.34568  -0.00090   0.00000  -0.01138  -0.01265  25.33302
    X8      -14.36562  -0.00022   0.00000  -0.00614  -0.00833 -14.37395
    Y8        9.54069  -0.00005   0.00000   0.02311   0.02047   9.56116
    Z8       22.94905   0.00022   0.00000   0.00555   0.00382  22.95287
    X9      -20.14385  -0.00003   0.00000  -0.01083  -0.01198 -20.15583
    Y9        4.89368  -0.00003   0.00000   0.01304   0.00851   4.90219
    Z9       19.55524   0.00027   0.00000  -0.01170  -0.01261  19.54263
   X10      -20.65072   0.00021   0.00000   0.00481   0.00430 -20.64642
   Y10        2.57983   0.00040   0.00000   0.00063  -0.00342   2.57642
   Z10       23.59747  -0.00007   0.00000  -0.01717  -0.01773  23.57974
   X11      -18.05738   0.00033   0.00000   0.01545   0.01474 -18.04264
   Y11        3.78192   0.00001   0.00000  -0.00521  -0.00808   3.77384
   Z11       27.34424  -0.00032   0.00000  -0.02637  -0.02716  27.31708
   X12      -14.87376  -0.00010   0.00000   0.00964   0.00810 -14.86566
   Y12        7.22916   0.00010   0.00000  -0.00116  -0.00333   7.22583
   Z12       26.96723  -0.00053   0.00000  -0.01110  -0.01247  26.95475
   X13      -17.16258  -0.01159   0.00000  -0.06088  -0.06301 -17.22560
   Y13        8.83267  -0.01538   0.00000   0.07391   0.06995   8.90262
   Z13       18.58739   0.01100   0.00000   0.04762   0.04605  18.63345
   X14      -15.90689   0.00308   0.00000  -0.03631  -0.03898 -15.94588
   Y14       11.01401   0.02495   0.00000   0.09972   0.09600  11.11001
   Z14       18.17690  -0.00035   0.00000   0.04505   0.04312  18.22003
   X15      -18.26639   0.00049   0.00000  -0.04279  -0.04476 -18.31116
   Y15        8.01933   0.00039   0.00000   0.06966   0.06521   8.08455
   Z15       17.03549   0.00007   0.00000   0.03586   0.03443  17.06992
   X16      -15.93981   0.00143   0.00000  -0.00020  -0.00312 -15.94292
   Y16       11.90438  -0.00139   0.00000   0.05809   0.05409  11.95847
   Z16       16.31758  -0.00102   0.00000   0.02370   0.02165  16.33923
   X17      -14.72575   0.00416   0.00000   0.05814   0.05530 -14.67045
   Y17       11.91018  -0.00231   0.00000   0.02252   0.01931  11.92950
   Z17       19.60560   0.00040   0.00000   0.01697   0.01489  19.62049
   X18       -1.84279   0.00474   0.00000   0.02365   0.02436  -1.81843
   Y18       -3.40784  -0.00082   0.00000  -0.00246  -0.00341  -3.41125
   Z18       14.10687  -0.00131   0.00000  -0.01347  -0.01356  14.09332
   X19      -15.85079  -0.00469   0.00000  -0.01924  -0.01874 -15.86953
   Y19       -2.51750   0.00125   0.00000  -0.00565  -0.00996  -2.52746
   Z19       14.10111  -0.00145   0.00000  -0.01318  -0.01308  14.08802
   X20      -13.26294  -0.00378   0.00000  -0.01459  -0.01518 -13.27812
   Y20        2.54431   0.00411   0.00000   0.01334   0.01050   2.55481
   Z20       19.79300   0.00097   0.00000   0.01063   0.00991  19.80290
   X21       -4.41170   0.00351   0.00000   0.01595   0.01797  -4.39373
   Y21       -8.31145  -0.00314   0.00000  -0.01859  -0.01928  -8.33073
   Z21       19.94616   0.00139   0.00000   0.01266   0.01336  19.95951
   X22       -6.42304  -0.00225   0.00000   0.01106   0.01061  -6.41243
   Y22        1.30764  -0.01476   0.00000  -0.02007  -0.02239   1.28526
   Z22       12.24407   0.01433   0.00000   0.01226   0.01157  12.25565
   X23      -11.31709   0.00338   0.00000  -0.00845  -0.00687 -11.32396
   Y23       -7.22186   0.01441   0.00000   0.00661   0.00314  -7.21872
   Z23       12.39352   0.01470   0.00000   0.00924   0.00992  12.40344
   X24       -6.81849  -0.00933   0.00000  -0.01799  -0.01833  -6.83681
   Y24        1.64252  -0.01200   0.00000  -0.00096  -0.00200   1.64052
   Z24       21.57150  -0.01455   0.00000  -0.01103  -0.01176  21.55974
   X25      -10.88787   0.01009   0.00000   0.02086   0.02268 -10.86520
   Y25       -7.30754   0.01025   0.00000  -0.00633  -0.00832  -7.31585
   Z25       21.69875  -0.01488   0.00000  -0.00996  -0.00926  21.68949
   X26       -4.59215  -0.01210   0.00000   0.00295   0.00397  -4.58818
   Y26       -4.89806   0.01110   0.00000   0.01223   0.01033  -4.88773
   Z26       12.09681   0.01520   0.00000   0.00680   0.00699  12.10380
   X27      -13.10447   0.01213   0.00000   0.00406   0.00415 -13.10032
   Y27       -1.01144  -0.01186   0.00000  -0.02563  -0.02958  -1.04102
   Z27       12.03531   0.01501   0.00000   0.00906   0.00887  12.04418
   X28      -12.87531   0.01708   0.00000   0.01341   0.01359 -12.86172
   Y28       -0.47530  -0.00459   0.00000   0.00412   0.00168  -0.47362
   Z28       21.85021  -0.01527   0.00000  -0.00838  -0.00865  21.84156
   X29       -4.80737  -0.01591   0.00000  -0.01107  -0.00976  -4.81713
   Y29       -5.17876   0.00283   0.00000  -0.01168  -0.01218  -5.19094
   Z29       21.92849  -0.01524   0.00000  -0.00800  -0.00776  21.92072
   X30       -5.97953   0.00113   0.00000  -0.00783  -0.00887  -5.98841
   Y30        3.54235   0.00452   0.00000  -0.00194  -0.00449   3.53787
   Z30       10.01181  -0.00417   0.00000   0.00987   0.00884  10.02065
   X31      -11.56983  -0.00062   0.00000   0.00836   0.01047 -11.55936
   Y31       -9.58498  -0.00477   0.00000  -0.00520  -0.00905  -9.59403
   Z31       10.23539  -0.00432   0.00000   0.00306   0.00410  10.23950
   X32       -5.06344   0.00349   0.00000   0.00007  -0.00059  -5.06403
   Y32        3.22910   0.00334   0.00000  -0.00655  -0.00684   3.22226
   Z32       23.74380   0.00449   0.00000  -0.00415  -0.00515  23.73865
   X33      -12.62538  -0.00335   0.00000   0.00321   0.00544 -12.61995
   Y33       -8.82103  -0.00312   0.00000  -0.00032  -0.00240  -8.82342
   Z33       23.93270   0.00450   0.00000  -0.00305  -0.00210  23.93060
   X34       -5.02455   0.00161   0.00000   0.01476   0.01498  -5.00957
   Y34       -1.73287   0.00118   0.00000   0.00281   0.00057  -1.73230
   Z34       10.56152  -0.00475   0.00000  -0.01675  -0.01702  10.54450
   X35      -12.66022  -0.00199   0.00000  -0.01280  -0.01196 -12.67218
   Y35       -4.28879  -0.00030   0.00000  -0.01313  -0.01719  -4.30598
   Z35       10.62080  -0.00485   0.00000  -0.01690  -0.01661  10.60419
   X36      -10.02197  -0.00078   0.00000  -0.00500  -0.00515 -10.02712
   Y36        1.03808   0.00203   0.00000   0.01340   0.01187   1.04995
   Z36       23.35502   0.00472   0.00000   0.01333   0.01276  23.36778
   X37       -7.65326   0.00036   0.00000   0.00590   0.00761  -7.64565
   Y37       -6.68073  -0.00173   0.00000  -0.01751  -0.01846  -6.69919
   Z37       23.44808   0.00471   0.00000   0.01480   0.01533  23.46341
   X38        0.59758   0.00662   0.00000  -0.00194  -0.00196   0.59563
   Y38       -0.04157   0.00219   0.00000   0.00081   0.00095  -0.04062
   Z38       17.53229   0.00195   0.00000   0.00422   0.00357  17.53586
   X39      -18.31228  -0.00660   0.00000   0.00574   0.00709 -18.30519
   Y39       -5.74758  -0.00205   0.00000  -0.00972  -0.01409  -5.76166
   Z39       17.62123   0.00195   0.00000   0.00402   0.00465  17.62588
   X40      -11.99117  -0.00353   0.00000  -0.01366  -0.01527 -12.00643
   Y40        6.47926   0.00859   0.00000  -0.00892  -0.01197   6.46729
   Z40       16.37408  -0.00112   0.00000  -0.00380  -0.00513  16.36895
   X41       -5.68916   0.00206   0.00000   0.00153   0.00442  -5.68474
   Y41      -12.27406  -0.00669   0.00000  -0.00272  -0.00423 -12.27829
   Z41       16.52351  -0.00173   0.00000  -0.00340  -0.00209  16.52143
   X42       -3.35744   0.00299   0.00000   0.01943   0.01899  -3.33845
   Y42        1.40523   0.00392   0.00000   0.00558   0.00427   1.40951
   Z42       14.12203  -0.00180   0.00000  -0.01119  -0.01197  14.11006
   X43      -14.35592  -0.00350   0.00000  -0.01687  -0.01521 -14.37113
   Y43       -7.33817  -0.00363   0.00000  -0.01519  -0.01912  -7.35729
   Z43       14.25073  -0.00136   0.00000  -0.01037  -0.00960  14.24113
   X44       -8.48161   0.00048   0.00000  -0.00636  -0.00734  -8.48895
   Y44        4.14760   0.00529   0.00000   0.01929   0.01758   4.16519
   Z44       19.70146   0.00096   0.00000   0.00570   0.00464  19.70610
   X45       -9.20791  -0.00124   0.00000   0.00870   0.01110  -9.19681
   Y45       -9.89195  -0.00473   0.00000  -0.02402  -0.02587  -9.91782
   Z45       19.89943   0.00163   0.00000   0.01045   0.01149  19.91093
   X46       -3.02482   0.00353   0.00000  -0.00136   0.00004  -3.02478
   Y46       -6.67561  -0.00413   0.00000  -0.00690  -0.00875  -6.68436
   Z46        9.92691  -0.00489   0.00000   0.00019   0.00061   9.92753
   X47      -14.76066  -0.00389   0.00000   0.01056   0.01023 -14.75043
   Y47        0.52139   0.00317   0.00000  -0.00535  -0.01003   0.51136
   Z47        9.78010  -0.00496   0.00000  -0.00054  -0.00092   9.77917
   X48      -15.18240  -0.00575   0.00000   0.00148   0.00168 -15.18072
   Y48       -0.31129   0.00077   0.00000  -0.00961  -0.01227  -0.32356
   Z48       24.07580   0.00545   0.00000   0.00009  -0.00015  24.07564
   X49       -2.47413   0.00527   0.00000   0.00141   0.00283  -2.47131
   Y49       -5.40742  -0.00055   0.00000   0.00377   0.00416  -5.40326
   Z49       24.12223   0.00487   0.00000  -0.00119  -0.00097  24.12127
   X50       -2.34852  -0.02057   0.00000  -0.00682  -0.00662  -2.35515
   Y50       -1.01780  -0.00734   0.00000  -0.00945  -0.01014  -1.02794
   Z50       16.70238  -0.00439   0.00000  -0.01567  -0.01610  16.68628
   X51      -15.36465   0.02101   0.00000   0.01097   0.01207 -15.35258
   Y51       -4.79805   0.00599   0.00000  -0.00110  -0.00489  -4.80294
   Z51       16.76893  -0.00475   0.00000  -0.01614  -0.01572  16.75321
   X52      -11.09313   0.00794   0.00000  -0.00119  -0.00206 -11.09519
   Y52        3.50873  -0.02300   0.00000  -0.01870  -0.02142   3.48731
   Z52       17.08953   0.00486   0.00000   0.01472   0.01382  17.10335
   X53       -6.60362  -0.00646   0.00000   0.00456   0.00675  -6.59687
   Y53       -9.29889   0.02080   0.00000   0.00704   0.00542  -9.29346
   Z53       17.31676   0.00403   0.00000   0.01510   0.01599  17.33275
   X54       -7.95892   0.00077   0.00000  -0.00135  -0.00011  -7.95903
   Y54       -5.88626  -0.00222   0.00000   0.00783   0.00503  -5.88123
   Z54       11.47700  -0.00327   0.00000   0.00823   0.00864  11.48564
   X55       -9.72690  -0.00094   0.00000   0.00618   0.00604  -9.72086
   Y55       -0.11913   0.00249   0.00000  -0.01980  -0.02304  -0.14217
   Z55       11.37311  -0.00306   0.00000   0.00938   0.00899  11.38209
   X56      -11.65336  -0.00266   0.00000   0.01383   0.01482 -11.63854
   Y56       -3.78053  -0.00001   0.00000   0.00014  -0.00191  -3.78244
   Z56       22.50646   0.00336   0.00000  -0.00874  -0.00855  22.49790
   X57       -5.99282   0.00233   0.00000  -0.01205  -0.01152  -6.00433
   Y57       -1.87502   0.00103   0.00000  -0.00597  -0.00667  -1.88169
   Z57       22.52119   0.00322   0.00000  -0.00955  -0.00977  22.51142
   X58       -8.21844  -0.00044   0.00000   0.00312   0.00232  -8.21612
   Y58        2.98391   0.00369   0.00000  -0.01653  -0.01890   2.96501
   Z58       14.80495  -0.00152   0.00000   0.01154   0.01065  14.81560
   X59       -9.46478  -0.00043   0.00000  -0.00162   0.00041  -9.46437
   Y59       -8.85293  -0.00345   0.00000   0.00634   0.00369  -8.84924
   Z59       14.97550  -0.00224   0.00000   0.00945   0.01034  14.98584
   X60       -4.37945   0.00238   0.00000  -0.01291  -0.01316  -4.39261
   Y60        1.06307   0.00256   0.00000  -0.00487  -0.00570   1.05737
   Z60       19.04129   0.00230   0.00000  -0.01057  -0.01127  19.03002
   X61      -13.31102  -0.00270   0.00000   0.01568   0.01732 -13.29369
   Y61       -6.83305  -0.00209   0.00000  -0.00358  -0.00653  -6.83958
   Z61       19.14329   0.00217   0.00000  -0.01023  -0.00955  19.13374
   X62       -4.85747   0.00180   0.00000   0.00321   0.00489  -4.85258
   Y62       -7.38974  -0.00297   0.00000   0.00669   0.00513  -7.38461
   Z62       14.86917  -0.00143   0.00000   0.00916   0.00973  14.87890
   X63      -12.86065  -0.00156   0.00000   0.00152   0.00107 -12.85957
   Y63        1.49901   0.00358   0.00000  -0.01784  -0.02133   1.47768
   Z63       14.74479  -0.00077   0.00000   0.01083   0.01026  14.75505
   X64      -14.77894  -0.00338   0.00000   0.01045   0.01100 -14.76795
   Y64       -2.22647   0.00027   0.00000  -0.00019  -0.00349  -2.22996
   Z64       19.16371   0.00170   0.00000  -0.01026  -0.01024  19.15347
   X65       -2.93463   0.00356   0.00000  -0.00666  -0.00581  -2.94044
   Y65       -3.54379   0.00040   0.00000  -0.00787  -0.00833  -3.55213
   Z65       19.16202   0.00134   0.00000  -0.01003  -0.01007  19.15195
   X66       -6.33575   0.03856   0.00000   0.06968   0.07012  -6.26563
   Y66       -2.19432   0.00708   0.00000   0.00528   0.00341  -2.19090
   Z66       15.14082  -0.02469   0.00000  -0.03996  -0.04013  15.10069
   X67      -11.36459  -0.03915   0.00000  -0.06438  -0.06357 -11.42816
   Y67       -3.70783  -0.00812   0.00000  -0.01912  -0.02221  -3.73004
   Z67       15.18172  -0.02450   0.00000  -0.04051  -0.04034  15.14138
   X68       -9.65950  -0.01631   0.00000  -0.02937  -0.02929  -9.68879
   Y68       -0.39911   0.03708   0.00000   0.05673   0.05460  -0.34450
   Z68       18.78853   0.02476   0.00000   0.04060   0.04023  18.82876
   X69       -8.00594   0.01613   0.00000   0.03245   0.03376  -7.97219
   Y69       -5.38640  -0.03535   0.00000  -0.06270  -0.06441  -5.45080
   Z69       18.85163   0.02503   0.00000   0.04005   0.04040  18.89203
   X70       -6.07315  -0.00041   0.00000  -0.00036   0.00223  -6.07092
   Y70      -11.59052   0.00110   0.00000   0.00768   0.00521 -11.58531
   Z70       10.67225   0.00088   0.00000   0.01024   0.01146  10.68371
   X71       -0.22018  -0.00122   0.00000  -0.01299  -0.01291  -0.23309
   Y71        0.07937  -0.00069   0.00000  -0.00620  -0.00541   0.07397
   Z71       23.29637  -0.00085   0.00000  -0.01035  -0.01099  23.28538
   X72      -17.54308   0.00110   0.00000   0.01549   0.01688 -17.52621
   Y72       -5.33575   0.00012   0.00000  -0.00386  -0.00718  -5.34293
   Z72       23.48130  -0.00095   0.00000  -0.01033  -0.00978  23.47152
   X73       -8.84535   0.00063   0.00000   0.00274   0.00340  -8.84195
   Y73       -2.91595  -0.00043   0.00000  -0.00495  -0.00715  -2.92310
   Z73       16.98820  -0.00030   0.00000  -0.00065  -0.00066  16.98754
         Item               Value     Threshold  Converged?
 Maximum Force            0.039147     0.000450     NO 
 RMS     Force            0.008850     0.000300     NO 
 Maximum Displacement     0.096004     0.001800     NO 
 RMS     Displacement     0.020185     0.001200     NO 
 Predicted change in Energy=-1.192654D-02
 GradGradGradGradGradGradGradGradGradGradGradGradGradGradGradGradGradGrad

 Unable to Open any file for archive entry.
 1\1\GINC-X11P1N2\Force\UwB97XD\def2SVP\C8H8Cl1K3O40V1W12(1-)\MAYUMIAO\
 02-Jun-2024\0\\# def2svp wb97xd scrf=(smd,solvent=acetonitrile) g09def
 ault scf=(xqc,maxcycle=64) force guess=read nosymm\\Title Card\\-1,1\C
 l,-9.64456284,8.27213185,10.54325303\C,-8.34654388,4.25235045,12.21326
 856\C,-9.14151916,3.93230969,11.09654558\C,-10.05455584,2.86801788,11.
 2155497\C,-10.20620475,2.18247832,12.41608424\C,-9.43516032,2.53509715
 ,13.5247281\C,-8.49405389,3.56117483,13.41235468\H,-7.60195729,5.04871
 472,12.14411685\H,-10.65966673,2.5896214,10.3481876\H,-10.92788953,1.3
 6518893,12.48724313\H,-9.55555627,2.00130833,14.46995004\H,-7.87085609
 ,3.82550637,14.27044113\C,-9.0820479,4.67404822,9.8360253\C,-8.4175654
 ,5.82836237,9.61880361\H,-9.66615818,4.24364922,9.01479258\H,-8.434982
 68,6.2995266,8.63489305\H,-7.79253162,6.30259793,10.37483573\O,-0.9751
 6246,-1.80335006,7.46503574\O,-8.38787699,-1.3322032,7.46198431\O,-7.0
 1844482,1.34639215,10.47400248\O,-2.33457184,-4.39822832,10.55505092\W
 ,-3.39892538,0.6919744,6.47928331\W,-5.98874713,-3.82164218,6.55836705
 \W,-3.60818912,0.8691828,11.41514604\W,-5.76161526,-3.86698098,11.4824
 8347\W,-2.43005947,-2.59194237,6.40135615\W,-6.93458764,-0.53522952,6.
 36881119\W,-6.81332099,-0.25151683,11.56263314\W,-2.54394954,-2.740479
 37,11.60405569\O,-3.16423274,1.87453308,5.29802175\O,-6.12248883,-5.07
 215164,5.41633671\O,-2.67945662,1.70876709,12.56467766\O,-6.68106385,-
 4.66788648,12.66463738\O,-2.65887985,-0.91699792,5.5889178\O,-6.699501
 56,-2.26952846,5.62028743\O,-5.30339751,0.5493281,12.35894451\O,-4.049
 93054,-3.53529006,12.40818872\O,0.31622682,-0.02199982,9.27768736\O,-9
 .69044131,-3.04148743,9.32475483\O,-6.34545229,3.42867773,8.66478919\O
 ,-3.01057204,-6.49515336,8.74386514\O,-1.77668121,0.74361612,7.4730554
 2\O,-7.59682516,-3.88319065,7.54116185\O,-4.48827516,2.19481767,10.425
 5644\O,-4.87261756,-5.23459682,10.53032584\O,-1.60066714,-3.532581,5.2
 5309505\O,-7.81100269,0.27590895,5.17540447\O,-8.03418026,-0.16472595,
 12.74036352\O,-1.30925487,-2.86148293,12.76493637\W,-1.24278507,-0.538
 59727,8.83851804\W,-8.13062473,-2.53901911,8.87373508\W,-5.87023059,1.
 85674197,9.04338826\W,-3.49448773,-4.92075927,9.16363212\O,-4.21167998
 ,-3.1148732,6.07336783\O,-5.1472547,-0.06304067,6.01838836\O,-6.166693
 92,-2.0005715,11.90990462\O,-3.17126206,-0.99221537,11.91769934\O,-4.3
 4901095,1.57901944,7.83444198\O,-5.00854685,-4.68477052,7.9246934\O,-2
 .31750378,0.56255053,10.07621425\O,-7.04388716,-3.61589573,10.1301917\
 O,-2.57046348,-3.9104819,7.86842544\O,-6.80556105,0.79324413,7.8026056
 2\O,-7.82068002,-1.17819815,10.14099888\O,-1.55293939,-1.87529355,10.1
 4010487\O,-3.35273432,-1.16118203,8.01217646\O,-6.01388238,-1.96209858
 ,8.03381794\O,-5.11158862,-0.21119772,9.94245946\O,-4.23656155,-2.8503
 5944,9.97585411\K,-3.21377331,-6.13343929,5.64751409\K,-0.11651394,0.0
 4200329,12.32790975\K,-9.28339873,-2.8235584,12.42577008\V,-4.68075653
 ,-1.54305369,8.98976852\\Version=ES64L-G16RevC.01\HF=-7327.7018537\S2=
 1.021785\S2-1=0.\S2A=0.174467\RMSD=6.835e-10\RMSF=8.850e-03\Dipole=1.3
 236519,-7.1366239,5.6438278\Quadrupole=-6.8774676,29.0071466,-22.12967
 9,94.0312451,129.7270963,-68.4379449\PG=C01 [X(C8H8Cl1K3O40V1W12)]\\@
 The archive entry for this job was punched.


 Human beings, who are almost unique in having the
 ability to learn from the experience of others, are
 also remarkable for their apparent disinclination to do so.
                               -- Douglas Adams,
                                Last Chance to See
 Job cpu time:       0 days 20 hours 24 minutes 16.4 seconds.
 Elapsed time:       0 days  0 hours 23 minutes 17.6 seconds.
 File lengths (MBytes):  RWF=   1868 Int=      0 D2E=      0 Chk=    306 Scr=      1
 Normal termination of Gaussian 16 at Sun Jun  2 19:57:30 2024.
