 Entering Gaussian System, Link 0=g16
 Input=JOBS/56_A.gjf
 Output=JOBS/56_A.log
 Initial command:
 /data/app/gaussian/C01-avx2//g16/l1.exe "/tmp/Gau-687075.inp" -scrdir="/tmp/"
 Entering Link 1 = /data/app/gaussian/C01-avx2//g16/l1.exe PID=    687076.
  
 Copyright (c) 1988-2019, Gaussian, Inc.  All Rights Reserved.
  
 This is part of the Gaussian(R) 16 program.  It is based on
 the Gaussian(R) 09 system (copyright 2009, Gaussian, Inc.),
 the Gaussian(R) 03 system (copyright 2003, Gaussian, Inc.),
 the Gaussian(R) 98 system (copyright 1998, Gaussian, Inc.),
 the Gaussian(R) 94 system (copyright 1995, Gaussian, Inc.),
 the Gaussian 92(TM) system (copyright 1992, Gaussian, Inc.),
 the Gaussian 90(TM) system (copyright 1990, Gaussian, Inc.),
 the Gaussian 88(TM) system (copyright 1988, Gaussian, Inc.),
 the Gaussian 86(TM) system (copyright 1986, Carnegie Mellon
 University), and the Gaussian 82(TM) system (copyright 1983,
 Carnegie Mellon University). Gaussian is a federally registered
 trademark of Gaussian, Inc.
  
 This software contains proprietary and confidential information,
 including trade secrets, belonging to Gaussian, Inc.
  
 This software is provided under written license and may be
 used, copied, transmitted, or stored only in accord with that
 written license.
  
 The following legend is applicable only to US Government
 contracts under FAR:
  
                    RESTRICTED RIGHTS LEGEND
  
 Use, reproduction and disclosure by the US Government is
 subject to restrictions as set forth in subparagraphs (a)
 and (c) of the Commercial Computer Software - Restricted
 Rights clause in FAR 52.227-19.
  
 Gaussian, Inc.
 340 Quinnipiac St., Bldg. 40, Wallingford CT 06492
  
  
 ---------------------------------------------------------------
 Warning -- This program may not be used in any manner that
 competes with the business of Gaussian, Inc. or will provide
 assistance to any competitor of Gaussian, Inc.  The licensee
 of this program is prohibited from giving any competitor of
 Gaussian, Inc. access to this program.  By using this program,
 the user acknowledges that Gaussian, Inc. is engaged in the
 business of creating and licensing software in the field of
 computational chemistry and represents and warrants to the
 licensee that it is not a competitor of Gaussian, Inc. and that
 it will not use this program in any manner prohibited above.
 ---------------------------------------------------------------
  

 Cite this work as:
 Gaussian 16, Revision C.01,
 M. J. Frisch, G. W. Trucks, H. B. Schlegel, G. E. Scuseria, 
 M. A. Robb, J. R. Cheeseman, G. Scalmani, V. Barone, 
 G. A. Petersson, H. Nakatsuji, X. Li, M. Caricato, A. V. Marenich, 
 J. Bloino, B. G. Janesko, R. Gomperts, B. Mennucci, H. P. Hratchian, 
 J. V. Ortiz, A. F. Izmaylov, J. L. Sonnenberg, D. Williams-Young, 
 F. Ding, F. Lipparini, F. Egidi, J. Goings, B. Peng, A. Petrone, 
 T. Henderson, D. Ranasinghe, V. G. Zakrzewski, J. Gao, N. Rega, 
 G. Zheng, W. Liang, M. Hada, M. Ehara, K. Toyota, R. Fukuda, 
 J. Hasegawa, M. Ishida, T. Nakajima, Y. Honda, O. Kitao, H. Nakai, 
 T. Vreven, K. Throssell, J. A. Montgomery, Jr., J. E. Peralta, 
 F. Ogliaro, M. J. Bearpark, J. J. Heyd, E. N. Brothers, K. N. Kudin, 
 V. N. Staroverov, T. A. Keith, R. Kobayashi, J. Normand, 
 K. Raghavachari, A. P. Rendell, J. C. Burant, S. S. Iyengar, 
 J. Tomasi, M. Cossi, J. M. Millam, M. Klene, C. Adamo, R. Cammi, 
 J. W. Ochterski, R. L. Martin, K. Morokuma, O. Farkas, 
 J. B. Foresman, and D. J. Fox, Gaussian, Inc., Wallingford CT, 2019.
 
 ******************************************
 Gaussian 16:  ES64L-G16RevC.01  3-Jul-2019
                 2-Jun-2024 
 ******************************************
 %chk=a.chk
 %nprocshared=56
 Will use up to   56 processors via shared memory.
 %mem=96gb
 ----------------------------------------------------------------------
 # def2svp wb97xd scrf=(smd,solvent=acetonitrile) g09default scf=(xqc,m
 axcycle=64) force guess=read nosymm
 ----------------------------------------------------------------------
 1/10=7,30=1,38=1,158=3,167=1/1,3;
 2/12=2,15=1,17=6,18=5,40=1/2;
 3/5=43,7=101,11=2,25=1,27=10,30=1,70=32201,71=1,72=2,74=-58,75=-4,116=-2,158=3/1,2,3;
 4/5=1,60=-1/1;
 5/5=2,7=64,8=3,13=1,38=6,53=2,87=10/2,8;
 6/7=2,8=2,9=2,10=2,28=1,87=10/1;
 7/29=1,30=1,87=10/1,2,3,16;
 1/10=7,30=1,158=3,167=1/3;
 99//99;
 Using 2006 physical constants.
 ----------
 Title Card
 ----------
 Symbolic Z-matrix:
 Charge = -1 Multiplicity = 1
 17                   -9.64203   8.27027   10.54117 
 6                    -8.34893   4.25496   12.21207 
 6                    -9.14373   3.93337   11.09566 
 6                    -10.05728   2.8698    11.21589 
 6                    -10.20658   2.18345   12.41628 
 6                    -9.43258   2.53451   13.5233 
 6                    -8.49385   3.56277   13.41086 
 1                    -7.6074    5.05416   12.14358 
 1                    -10.6654   2.59374   10.34989 
 1                    -10.92949   1.36734   12.48873 
 1                    -9.54904   1.99816   14.46754 
 1                    -7.8711    3.82878   14.26871 
 6                    -9.08587   4.67553   9.83544 
 6                    -8.42123   5.83008   9.6204 
 1                    -9.67188   4.24678   9.01467 
 1                    -8.44261   6.30721   8.63965 
 1                    -7.79309   6.29932   10.37693 
 8                    -0.97521  -1.80462   7.46421 
 8                    -8.38634  -1.33168   7.46207 
 8                    -7.01727   1.34556   10.4749 
 8                    -2.33459  -4.39835   10.55511 
 74                   -3.39728   0.69361   6.48118 
 74                   -5.98883  -3.82323   6.5589 
 74                   -3.60649   0.8698    11.41361 
 74                   -5.76212  -3.86875   11.48208 
 74                   -2.43097  -2.59134   6.39992 
 74                   -6.93236  -0.53606   6.36728 
 74                   -6.81123  -0.25256   11.56432 
 74                   -2.54477  -2.74119   11.60526 
 8                    -3.16229   1.87717   5.30106 
 8                    -6.12299  -5.07352   5.41666 
 8                    -2.67783   1.70902   12.56346 
 8                    -6.68109  -4.67041   12.66399 
 8                    -2.65959  -0.91659   5.58891 
 8                    -6.69892  -2.27033   5.62029 
 8                    -5.30118   0.54874   12.35872 
 8                    -4.05026  -3.5363    12.40843 
 8                     0.31832  -0.02505   9.27681 
 8                    -9.69026  -3.04024   9.32366 
 8                    -6.34693   3.42762   8.66525 
 8                    -3.00942  -6.49541   8.74405 
 8                    -1.77515   0.74239   7.47325 
 8                    -7.59675  -3.88313   7.54145 
 8                    -4.48729   2.19465   10.42519 
 8                    -4.87231  -5.23531   10.53005 
 8                    -1.60152  -3.53074   5.25071 
 8                    -7.80859   0.27424   5.1732 
 8                    -8.03107  -0.16366   12.74277 
 8                    -1.31131  -2.86244   12.76737 
 74                   -1.24112  -0.54125   8.83883 
 74                   -8.13023  -2.53797   8.87361 
 74                   -5.87131   1.85581   9.04361 
 74                   -3.49359  -4.92095   9.1633 
 8                    -4.21221  -3.11576   6.07302 
 8                    -5.14597  -0.06256   6.01861 
 8                    -6.16641  -2.00184   11.9113 
 8                    -3.1705   -0.99262   11.9166 
 8                    -4.34804   1.57902   7.83567 
 8                    -5.00883  -4.68627   7.92471 
 8                    -2.31525   0.56205   10.07573 
 8                    -7.04399  -3.61636   10.13046 
 8                    -2.57108  -3.91084   7.86768 
 8                    -6.80473   0.79267   7.80247 
 8                    -7.81971  -1.17859   10.14228 
 8                    -1.55134  -1.87648   10.14078 
 8                    -3.35212  -1.16162   8.01279 
 8                    -6.01268  -1.96298   8.03382 
 8                    -5.11046  -0.21173   9.9423 
 8                    -4.23686  -2.85088   9.97605 
 19                   -3.21445  -6.13391   5.64782 
 19                   -0.11847   0.03843   12.32575 
 19                   -9.28332  -2.82225   12.42389 
 23                   -4.68008  -1.54363   8.9899 
 

 GradGradGradGradGradGradGradGradGradGradGradGradGradGradGradGradGradGrad
 Berny optimization.
 Initialization pass.
 Trust Radius=3.00D-01 FncErr=1.00D-07 GrdErr=1.00D-07 EigMax=2.50D+02 EigMin=1.00D-04
 Number of steps in this run=      2 maximum allowed number of steps=      2.
 GradGradGradGradGradGradGradGradGradGradGradGradGradGradGradGradGradGrad

 Symmetry turned off by external request.
 Stoichiometry    C8H8ClK3O40VW12(1-)
 Framework group  C1[X(C8H8ClK3O40VW12)]
 Deg. of freedom   213
 Full point group                 C1      NOp   1
                          Input orientation:                          
 ---------------------------------------------------------------------
 Center     Atomic      Atomic             Coordinates (Angstroms)
 Number     Number       Type             X           Y           Z
 ---------------------------------------------------------------------
      1         17           0       -9.642033    8.270271   10.541173
      2          6           0       -8.348931    4.254957   12.212068
      3          6           0       -9.143733    3.933374   11.095657
      4          6           0      -10.057282    2.869804   11.215895
      5          6           0      -10.206584    2.183451   12.416278
      6          6           0       -9.432576    2.534506   13.523295
      7          6           0       -8.493848    3.562771   13.410856
      8          1           0       -7.607399    5.054164   12.143582
      9          1           0      -10.665396    2.593739   10.349888
     10          1           0      -10.929489    1.367338   12.488735
     11          1           0       -9.549042    1.998165   14.467545
     12          1           0       -7.871102    3.828778   14.268707
     13          6           0       -9.085871    4.675535    9.835436
     14          6           0       -8.421234    5.830079    9.620401
     15          1           0       -9.671882    4.246777    9.014671
     16          1           0       -8.442608    6.307214    8.639648
     17          1           0       -7.793088    6.299318   10.376932
     18          8           0       -0.975212   -1.804623    7.464209
     19          8           0       -8.386341   -1.331678    7.462071
     20          8           0       -7.017268    1.345557   10.474900
     21          8           0       -2.334586   -4.398348   10.555113
     22         74           0       -3.397277    0.693611    6.481184
     23         74           0       -5.988834   -3.823234    6.558901
     24         74           0       -3.606488    0.869797   11.413614
     25         74           0       -5.762123   -3.868750   11.482078
     26         74           0       -2.430967   -2.591336    6.399921
     27         74           0       -6.932359   -0.536058    6.367276
     28         74           0       -6.811227   -0.252564   11.564316
     29         74           0       -2.544773   -2.741191   11.605256
     30          8           0       -3.162291    1.877168    5.301057
     31          8           0       -6.122990   -5.073525    5.416659
     32          8           0       -2.677834    1.709020   12.563457
     33          8           0       -6.681088   -4.670409   12.663989
     34          8           0       -2.659588   -0.916592    5.588906
     35          8           0       -6.698920   -2.270331    5.620287
     36          8           0       -5.301176    0.548737   12.358719
     37          8           0       -4.050259   -3.536301   12.408434
     38          8           0        0.318322   -0.025053    9.276815
     39          8           0       -9.690264   -3.040236    9.323657
     40          8           0       -6.346933    3.427621    8.665248
     41          8           0       -3.009424   -6.495406    8.744047
     42          8           0       -1.775153    0.742387    7.473252
     43          8           0       -7.596750   -3.883135    7.541452
     44          8           0       -4.487293    2.194651   10.425195
     45          8           0       -4.872314   -5.235307   10.530046
     46          8           0       -1.601524   -3.530745    5.250715
     47          8           0       -7.808592    0.274243    5.173204
     48          8           0       -8.031071   -0.163658   12.742773
     49          8           0       -1.311312   -2.862437   12.767375
     50         74           0       -1.241120   -0.541251    8.838831
     51         74           0       -8.130234   -2.537968    8.873614
     52         74           0       -5.871307    1.855815    9.043609
     53         74           0       -3.493594   -4.920951    9.163304
     54          8           0       -4.212215   -3.115765    6.073021
     55          8           0       -5.145974   -0.062562    6.018610
     56          8           0       -6.166408   -2.001835   11.911297
     57          8           0       -3.170498   -0.992619   11.916596
     58          8           0       -4.348044    1.579024    7.835672
     59          8           0       -5.008833   -4.686273    7.924713
     60          8           0       -2.315250    0.562048   10.075727
     61          8           0       -7.043991   -3.616365   10.130460
     62          8           0       -2.571085   -3.910836    7.867683
     63          8           0       -6.804735    0.792670    7.802471
     64          8           0       -7.819710   -1.178588   10.142278
     65          8           0       -1.551344   -1.876480   10.140780
     66          8           0       -3.352121   -1.161624    8.012792
     67          8           0       -6.012675   -1.962984    8.033821
     68          8           0       -5.110455   -0.211733    9.942300
     69          8           0       -4.236860   -2.850880    9.976050
     70         19           0       -3.214451   -6.133909    5.647818
     71         19           0       -0.118468    0.038428   12.325752
     72         19           0       -9.283320   -2.822253   12.423893
     73         23           0       -4.680078   -1.543631    8.989897
 ---------------------------------------------------------------------
 Rotational constants (GHZ):           0.0172135           0.0132202           0.0129976
 Standard basis: def2SVP (5D, 7F)
  1217 basis functions,  2313 primitive gaussians,  1337 cartesian basis functions
   321 alpha electrons      321 beta electrons
       nuclear repulsion energy     20976.8882424843 Hartrees.
 NAtoms=   73 NActive=   73 NUniq=   73 SFac= 1.00D+00 NAtFMM=   60 NAOKFM=T Big=T
 Integral buffers will be    131072 words long.
 Raffenetti 2 integral format.
 Two-electron integral symmetry is turned off.
 Nuclear repulsion after empirical dispersion term =    20976.6118564442 Hartrees.
 Force PCM accuracy= 1.00D-10.
 ------------------------------------------------------------------------------
 Polarizable Continuum Model (PCM)
 =================================
 Model                : PCM (using non-symmetric T matrix).
 Atomic radii         : SMD-Coulomb.
 Polarization charges : Total charges.
 Charge compensation  : None.
 Solution method      : On-the-fly selection.
 Cavity type          : VdW (van der Waals Surface) (Alpha=1.000).
 Cavity algorithm     : GePol (No added spheres)
                        Default sphere list used, NSphG=   73.
                        Lebedev-Laikov grids with approx.  5.0 points / Ang**2.
                        Smoothing algorithm: York/Karplus (Gamma=1.0000).
                        Polarization charges: spherical gaussians, with
                                              point-specific exponents (IZeta= 3).
                        Self-potential: point-specific (ISelfS= 7).
                        Self-field    : sphere-specific E.n sum rule (ISelfD= 2).
 1st derivatives      : Analytical E(r).r(x)/FMM algorithm (CHGder, D1EAlg=3).
                        Cavity 1st derivative terms included.
 Solvent              : Acetonitrile, Eps=  35.688000 Eps(inf)=   1.806874
 ------------------------------------------------------------------------------
 ------------------------------------------------------------------------------
 Atomic radii for non-electrostatic terms: SMD-CDS.
 ------------------------------------------------------------------------------
 Nuclear repulsion after PCM non-electrostatic terms =    20976.6061580681 Hartrees.
 One-electron integrals computed using PRISM.
   1 Symmetry operations used in ECPInt.
 ECPInt:  NShTT=  127765 NPrTT=  468030 LenC2=   96512 LenP2D=  220874.
 LDataN:  DoStor=T MaxTD1= 8 Len=  415
 NBasis=  1217 RedAO= T EigKep=  1.38D-04  NBF=  1217
 NBsUse=  1217 1.00D-06 EigRej= -1.00D+00 NBFU=  1217
 Defaulting to unpruned grid for atomic number  74.
 Defaulting to unpruned grid for atomic number  74.
 Defaulting to unpruned grid for atomic number  74.
 Defaulting to unpruned grid for atomic number  74.
 Defaulting to unpruned grid for atomic number  74.
 Defaulting to unpruned grid for atomic number  74.
 Defaulting to unpruned grid for atomic number  74.
 Defaulting to unpruned grid for atomic number  74.
 Initial guess from the checkpoint file:  "a.chk"
 B after Tr=     0.000971   -0.000525    0.000216
         Rot=    1.000000   -0.000012    0.000011    0.000027 Ang=  -0.00 deg.
 Requested convergence on RMS density matrix=1.00D-08 within  64 cycles.
 Requested convergence on MAX density matrix=1.00D-06.
 Requested convergence on             energy=1.00D-06.
 No special actions if energy rises.
 Defaulting to unpruned grid for atomic number  74.
 Defaulting to unpruned grid for atomic number  74.
 Defaulting to unpruned grid for atomic number  74.
 Defaulting to unpruned grid for atomic number  74.
 Defaulting to unpruned grid for atomic number  74.
 Defaulting to unpruned grid for atomic number  74.
 Defaulting to unpruned grid for atomic number  74.
 Defaulting to unpruned grid for atomic number  74.
 Defaulting to unpruned grid for atomic number  74.
 Defaulting to unpruned grid for atomic number  74.
 Defaulting to unpruned grid for atomic number  74.
 Defaulting to unpruned grid for atomic number  74.
 Defaulting to unpruned grid for atomic number  74.
 Defaulting to unpruned grid for atomic number  74.
 Defaulting to unpruned grid for atomic number  74.
 Defaulting to unpruned grid for atomic number  74.
 Defaulting to unpruned grid for atomic number  74.
 Defaulting to unpruned grid for atomic number  74.
 Defaulting to unpruned grid for atomic number  74.
 Defaulting to unpruned grid for atomic number  74.
 Defaulting to unpruned grid for atomic number  74.
 Defaulting to unpruned grid for atomic number  74.
 Defaulting to unpruned grid for atomic number  74.
 Defaulting to unpruned grid for atomic number  74.
 Defaulting to unpruned grid for atomic number  74.
 Defaulting to unpruned grid for atomic number  74.
 Defaulting to unpruned grid for atomic number  74.
 Defaulting to unpruned grid for atomic number  74.
 Defaulting to unpruned grid for atomic number  74.
 Defaulting to unpruned grid for atomic number  74.
 Defaulting to unpruned grid for atomic number  74.
 Defaulting to unpruned grid for atomic number  74.
 Defaulting to unpruned grid for atomic number  74.
 Defaulting to unpruned grid for atomic number  74.
 Defaulting to unpruned grid for atomic number  74.
 Defaulting to unpruned grid for atomic number  74.
 Defaulting to unpruned grid for atomic number  74.
 Defaulting to unpruned grid for atomic number  74.
 Defaulting to unpruned grid for atomic number  74.
 Defaulting to unpruned grid for atomic number  74.
 Defaulting to unpruned grid for atomic number  74.
 Defaulting to unpruned grid for atomic number  74.
 Defaulting to unpruned grid for atomic number  74.
 Defaulting to unpruned grid for atomic number  74.
 Defaulting to unpruned grid for atomic number  74.
 Defaulting to unpruned grid for atomic number  74.
 Defaulting to unpruned grid for atomic number  74.
 Defaulting to unpruned grid for atomic number  74.
 Defaulting to unpruned grid for atomic number  74.
 Defaulting to unpruned grid for atomic number  74.
 Defaulting to unpruned grid for atomic number  74.
 Defaulting to unpruned grid for atomic number  74.
 Defaulting to unpruned grid for atomic number  74.
 Defaulting to unpruned grid for atomic number  74.
 Defaulting to unpruned grid for atomic number  74.
 Defaulting to unpruned grid for atomic number  74.
 Inv3:  Mode=1 IEnd=    87415212.
 Iteration    1 A*A^-1 deviation from unit magnitude is 4.22D-15 for    382.
 Iteration    1 A*A^-1 deviation from orthogonality  is 2.85D-15 for    578    198.
 Iteration    1 A^-1*A deviation from unit magnitude is 3.55D-15 for    382.
 Iteration    1 A^-1*A deviation from orthogonality  is 7.89D-07 for   3460   3396.
 Iteration    2 A*A^-1 deviation from unit magnitude is 4.66D-15 for   4518.
 Iteration    2 A*A^-1 deviation from orthogonality  is 6.19D-15 for    955    721.
 Iteration    2 A^-1*A deviation from unit magnitude is 1.44D-15 for   2591.
 Iteration    2 A^-1*A deviation from orthogonality  is 6.04D-16 for   5219   5102.
 Error on total polarization charges =  0.01614
 SCF Done:  E(RwB97XD) =  -7327.70188337     A.U. after   10 cycles
            NFock= 10  Conv=0.57D-08     -V/T= 2.0832
 SMD-CDS (non-electrostatic) energy       (kcal/mol) =      -3.58
 (included in total energy above)
 QCSCF skips out because SCF is already converged.

 **********************************************************************

            Population analysis using the SCF Density.

 **********************************************************************

 Alpha  occ. eigenvalues -- -197.29438-130.00091-130.00073-129.99985-101.48367
 Alpha  occ. eigenvalues --  -22.62563 -19.33627 -19.33619 -19.33617 -19.33592
 Alpha  occ. eigenvalues --  -19.30728 -19.30690 -19.30689 -19.30682 -19.30677
 Alpha  occ. eigenvalues --  -19.30670 -19.30665 -19.30638 -19.30566 -19.30369
 Alpha  occ. eigenvalues --  -19.30346 -19.30178 -19.29320 -19.29316 -19.29297
 Alpha  occ. eigenvalues --  -19.29280 -19.29269 -19.29263 -19.29232 -19.29209
 Alpha  occ. eigenvalues --  -19.29204 -19.29175 -19.29173 -19.29149 -19.29135
 Alpha  occ. eigenvalues --  -19.29100 -19.29095 -19.29091 -19.29090 -19.29063
 Alpha  occ. eigenvalues --  -19.29058 -19.29016 -19.28991 -19.28968 -19.28944
 Alpha  occ. eigenvalues --  -19.28862 -19.11519 -19.11511 -19.11503 -13.37495
 Alpha  occ. eigenvalues --  -13.37476 -13.37382 -10.70424 -10.70417 -10.70416
 Alpha  occ. eigenvalues --  -10.70405 -10.70398 -10.70396 -10.70313 -10.70306
 Alpha  occ. eigenvalues --  -10.70300 -10.29834 -10.29336 -10.29279 -10.29046
 Alpha  occ. eigenvalues --  -10.28953 -10.28941 -10.28065 -10.27469  -9.38844
 Alpha  occ. eigenvalues --   -7.13670  -7.13621  -7.13613  -3.23323  -3.23320
 Alpha  occ. eigenvalues --   -3.23305  -3.23299  -3.23293  -3.23276  -3.23261
 Alpha  occ. eigenvalues --   -3.23258  -3.23228  -3.22978  -3.22962  -3.22783
 Alpha  occ. eigenvalues --   -2.91806  -1.94188  -1.94154  -1.94143  -1.87722
 Alpha  occ. eigenvalues --   -1.87678  -1.87662  -1.87633  -1.87492  -1.87473
 Alpha  occ. eigenvalues --   -1.87470  -1.87453  -1.87431  -1.87278  -1.87249
 Alpha  occ. eigenvalues --   -1.87099  -1.86630  -1.86512  -1.86502  -1.86485
 Alpha  occ. eigenvalues --   -1.86460  -1.86438  -1.86346  -1.86336  -1.86319
 Alpha  occ. eigenvalues --   -1.86300  -1.86293  -1.86264  -1.86150  -1.86138
 Alpha  occ. eigenvalues --   -1.86126  -1.86117  -1.86045  -1.86031  -1.85992
 Alpha  occ. eigenvalues --   -1.85924  -1.85906  -1.85807  -1.85717  -1.85669
 Alpha  occ. eigenvalues --   -1.51185  -1.51166  -1.51080  -1.13058  -1.11288
 Alpha  occ. eigenvalues --   -1.11203  -1.11200  -1.08967  -1.08532  -1.08492
 Alpha  occ. eigenvalues --   -1.08324  -1.07568  -1.07507  -1.07497  -1.06903
 Alpha  occ. eigenvalues --   -1.06895  -1.06875  -1.06329  -1.06308  -1.05321
 Alpha  occ. eigenvalues --   -1.05313  -1.04984  -1.04980  -1.04969  -1.04197
 Alpha  occ. eigenvalues --   -1.04187  -1.04175  -1.04032  -1.04010  -1.04000
 Alpha  occ. eigenvalues --   -1.03943  -1.03921  -1.03899  -1.03766  -1.03744
 Alpha  occ. eigenvalues --   -1.03620  -1.03557  -1.03305  -1.03266  -1.03122
 Alpha  occ. eigenvalues --   -1.03111  -1.03032  -1.02968  -0.94358  -0.86654
 Alpha  occ. eigenvalues --   -0.86639  -0.86557  -0.86482  -0.86460  -0.86459
 Alpha  occ. eigenvalues --   -0.86446  -0.86430  -0.86369  -0.86332  -0.82799
 Alpha  occ. eigenvalues --   -0.79728  -0.71628  -0.69647  -0.67990  -0.64619
 Alpha  occ. eigenvalues --   -0.63994  -0.63915  -0.63902  -0.63317  -0.63298
 Alpha  occ. eigenvalues --   -0.63176  -0.62914  -0.62681  -0.62605  -0.61997
 Alpha  occ. eigenvalues --   -0.61625  -0.61611  -0.61516  -0.61259  -0.61249
 Alpha  occ. eigenvalues --   -0.61182  -0.60419  -0.59486  -0.59465  -0.59454
 Alpha  occ. eigenvalues --   -0.59416  -0.59369  -0.58568  -0.58006  -0.57975
 Alpha  occ. eigenvalues --   -0.57887  -0.57069  -0.57035  -0.57006  -0.56295
 Alpha  occ. eigenvalues --   -0.56276  -0.56122  -0.55705  -0.54863  -0.54812
 Alpha  occ. eigenvalues --   -0.54771  -0.54512  -0.54244  -0.54113  -0.54102
 Alpha  occ. eigenvalues --   -0.54023  -0.53963  -0.53243  -0.53207  -0.53076
 Alpha  occ. eigenvalues --   -0.53042  -0.52906  -0.52713  -0.52678  -0.52643
 Alpha  occ. eigenvalues --   -0.52612  -0.52511  -0.52470  -0.52418  -0.51615
 Alpha  occ. eigenvalues --   -0.51598  -0.51329  -0.51311  -0.51267  -0.51228
 Alpha  occ. eigenvalues --   -0.51174  -0.51163  -0.50929  -0.50772  -0.50598
 Alpha  occ. eigenvalues --   -0.50579  -0.50572  -0.49879  -0.49878  -0.49300
 Alpha  occ. eigenvalues --   -0.49275  -0.49242  -0.49214  -0.49164  -0.49079
 Alpha  occ. eigenvalues --   -0.48898  -0.48078  -0.48029  -0.47923  -0.47660
 Alpha  occ. eigenvalues --   -0.47389  -0.47292  -0.47250  -0.46997  -0.46940
 Alpha  occ. eigenvalues --   -0.46820  -0.46550  -0.46499  -0.46491  -0.46190
 Alpha  occ. eigenvalues --   -0.46142  -0.46105  -0.45588  -0.45105  -0.44921
 Alpha  occ. eigenvalues --   -0.44880  -0.44214  -0.44144  -0.44035  -0.43494
 Alpha  occ. eigenvalues --   -0.43286  -0.43235  -0.43119  -0.43105  -0.43073
 Alpha  occ. eigenvalues --   -0.42709  -0.42687  -0.42662  -0.42593  -0.42583
 Alpha  occ. eigenvalues --   -0.42501  -0.42470  -0.42448  -0.42292  -0.42274
 Alpha  occ. eigenvalues --   -0.42258  -0.42029  -0.41917  -0.41863  -0.41845
 Alpha  occ. eigenvalues --   -0.41170  -0.41165  -0.41127  -0.41024  -0.40549
 Alpha  occ. eigenvalues --   -0.40525  -0.40508  -0.40376  -0.39443  -0.39437
 Alpha  occ. eigenvalues --   -0.36977  -0.32541  -0.29181  -0.25147  -0.25120
 Alpha  occ. eigenvalues --   -0.23536
 Alpha virt. eigenvalues --   -0.09455  -0.09238  -0.08522  -0.08462  -0.07042
 Alpha virt. eigenvalues --   -0.07019  -0.06935  -0.04463  -0.04154  -0.04109
 Alpha virt. eigenvalues --   -0.03718  -0.03491  -0.03443  -0.03241  -0.03142
 Alpha virt. eigenvalues --   -0.03102  -0.03074  -0.02218  -0.02166  -0.02133
 Alpha virt. eigenvalues --   -0.01513  -0.01494  -0.01444  -0.01306  -0.01242
 Alpha virt. eigenvalues --   -0.00103  -0.00081  -0.00023   0.01402   0.01459
 Alpha virt. eigenvalues --    0.01906   0.01932   0.02031   0.02136   0.02171
 Alpha virt. eigenvalues --    0.02178   0.02249   0.02297   0.02769   0.02839
 Alpha virt. eigenvalues --    0.02906   0.02981   0.03014   0.04431   0.04529
 Alpha virt. eigenvalues --    0.06758   0.07280   0.07520   0.07545   0.07799
 Alpha virt. eigenvalues --    0.08018   0.08484   0.08529   0.08795   0.09153
 Alpha virt. eigenvalues --    0.09339   0.09387   0.09665   0.09885   0.10250
 Alpha virt. eigenvalues --    0.10327   0.10370   0.10433   0.10479   0.10638
 Alpha virt. eigenvalues --    0.10896   0.11053   0.11062   0.11642   0.11723
 Alpha virt. eigenvalues --    0.12217   0.13123   0.13234   0.13326   0.13597
 Alpha virt. eigenvalues --    0.13757   0.14463   0.14557   0.14681   0.15002
 Alpha virt. eigenvalues --    0.15555   0.16154   0.16337   0.16580   0.16751
 Alpha virt. eigenvalues --    0.16768   0.16911   0.17080   0.17248   0.17719
 Alpha virt. eigenvalues --    0.17910   0.18161   0.18222   0.18376   0.18578
 Alpha virt. eigenvalues --    0.18746   0.19050   0.19294   0.19406   0.19576
 Alpha virt. eigenvalues --    0.19648   0.20189   0.20283   0.20484   0.20588
 Alpha virt. eigenvalues --    0.20755   0.20881   0.20993   0.21362   0.21417
 Alpha virt. eigenvalues --    0.21528   0.21627   0.21707   0.21870   0.22034
 Alpha virt. eigenvalues --    0.22455   0.22733   0.22911   0.23137   0.23218
 Alpha virt. eigenvalues --    0.23464   0.23780   0.23977   0.24276   0.24580
 Alpha virt. eigenvalues --    0.24750   0.25212   0.25433   0.25669   0.25860
 Alpha virt. eigenvalues --    0.26008   0.26204   0.26428   0.26596   0.26675
 Alpha virt. eigenvalues --    0.26963   0.27232   0.27366   0.27441   0.27751
 Alpha virt. eigenvalues --    0.28033   0.28270   0.28319   0.28638   0.28742
 Alpha virt. eigenvalues --    0.29157   0.29500   0.29895   0.30326   0.30510
 Alpha virt. eigenvalues --    0.30730   0.30920   0.31250   0.31482   0.31827
 Alpha virt. eigenvalues --    0.32306   0.34765   0.35210   0.35770   0.36326
 Alpha virt. eigenvalues --    0.36656   0.36927   0.37279   0.38114   0.38412
 Alpha virt. eigenvalues --    0.38648   0.39189   0.39514   0.39647   0.40234
 Alpha virt. eigenvalues --    0.40708   0.40855   0.40961   0.41126   0.41745
 Alpha virt. eigenvalues --    0.42117   0.42474   0.42799   0.43290   0.43541
 Alpha virt. eigenvalues --    0.43697   0.44495   0.44754   0.44886   0.45260
 Alpha virt. eigenvalues --    0.45778   0.46328   0.46551   0.46681   0.47352
 Alpha virt. eigenvalues --    0.47387   0.47645   0.47851   0.48083   0.48217
 Alpha virt. eigenvalues --    0.48418   0.48454   0.48584   0.48689   0.48973
 Alpha virt. eigenvalues --    0.49159   0.49394   0.49444   0.49794   0.49825
 Alpha virt. eigenvalues --    0.50185   0.50484   0.50640   0.50745   0.50983
 Alpha virt. eigenvalues --    0.51623   0.51714   0.51873   0.52229   0.52424
 Alpha virt. eigenvalues --    0.52663   0.52902   0.53010   0.53150   0.53310
 Alpha virt. eigenvalues --    0.53640   0.54039   0.54266   0.54350   0.54502
 Alpha virt. eigenvalues --    0.54951   0.55397   0.55644   0.56351   0.56438
 Alpha virt. eigenvalues --    0.56821   0.57397   0.57759   0.58028   0.58290
 Alpha virt. eigenvalues --    0.58567   0.59079   0.59453   0.60155   0.60777
 Alpha virt. eigenvalues --    0.61364   0.62302   0.62604   0.62767   0.63227
 Alpha virt. eigenvalues --    0.64150   0.65269   0.65683   0.65718   0.65931
 Alpha virt. eigenvalues --    0.66129   0.66541   0.66997   0.67372   0.67432
 Alpha virt. eigenvalues --    0.67833   0.68330   0.69628   0.70229   0.71102
 Alpha virt. eigenvalues --    0.71402   0.71903   0.72138   0.72213   0.72268
 Alpha virt. eigenvalues --    0.72556   0.72718   0.73251   0.73374   0.73981
 Alpha virt. eigenvalues --    0.74605   0.74837   0.75545   0.75668   0.75880
 Alpha virt. eigenvalues --    0.76169   0.76776   0.76900   0.77177   0.77453
 Alpha virt. eigenvalues --    0.77996   0.78483   0.79072   0.79473   0.79706
 Alpha virt. eigenvalues --    0.80265   0.80524   0.80643   0.80724   0.81480
 Alpha virt. eigenvalues --    0.81518   0.81813   0.82018   0.82510   0.83205
 Alpha virt. eigenvalues --    0.84000   0.84229   0.84751   0.85391   0.85875
 Alpha virt. eigenvalues --    0.87180   0.87523   0.87964   0.88050   0.88709
 Alpha virt. eigenvalues --    0.88904   0.89011   0.89495   0.89638   0.90261
 Alpha virt. eigenvalues --    0.90685   0.90949   0.91227   0.91468   0.91738
 Alpha virt. eigenvalues --    0.92821   0.93050   0.93537   0.93878   0.94079
 Alpha virt. eigenvalues --    0.94187   0.94800   0.95640   0.95879   0.96516
 Alpha virt. eigenvalues --    0.96838   0.97057   0.97270   0.97708   0.97804
 Alpha virt. eigenvalues --    0.98143   0.98282   0.98403   0.98544   0.98786
 Alpha virt. eigenvalues --    0.98912   0.99432   0.99926   1.00379   1.00578
 Alpha virt. eigenvalues --    1.00879   1.01267   1.01552   1.01648   1.01698
 Alpha virt. eigenvalues --    1.02118   1.02236   1.02429   1.02460   1.02654
 Alpha virt. eigenvalues --    1.02902   1.03412   1.03508   1.03643   1.03853
 Alpha virt. eigenvalues --    1.04133   1.04199   1.04360   1.04634   1.04712
 Alpha virt. eigenvalues --    1.04986   1.05093   1.05234   1.05433   1.05798
 Alpha virt. eigenvalues --    1.05933   1.06362   1.06539   1.06992   1.07138
 Alpha virt. eigenvalues --    1.07518   1.07832   1.08620   1.09072   1.09251
 Alpha virt. eigenvalues --    1.09413   1.09844   1.09906   1.10110   1.10234
 Alpha virt. eigenvalues --    1.10749   1.10847   1.10955   1.11020   1.11273
 Alpha virt. eigenvalues --    1.11475   1.11675   1.11746   1.12098   1.12475
 Alpha virt. eigenvalues --    1.12783   1.13443   1.13602   1.14139   1.14827
 Alpha virt. eigenvalues --    1.15274   1.15758   1.16150   1.16262   1.16644
 Alpha virt. eigenvalues --    1.17057   1.17649   1.17848   1.18653   1.18672
 Alpha virt. eigenvalues --    1.19543   1.20592   1.20957   1.21159   1.21307
 Alpha virt. eigenvalues --    1.21480   1.21921   1.22140   1.22969   1.23563
 Alpha virt. eigenvalues --    1.25104   1.26044   1.26485   1.26690   1.27038
 Alpha virt. eigenvalues --    1.27532   1.28170   1.28418   1.28532   1.28617
 Alpha virt. eigenvalues --    1.28819   1.29122   1.29168   1.29401   1.29718
 Alpha virt. eigenvalues --    1.30152   1.30211   1.30388   1.30752   1.30819
 Alpha virt. eigenvalues --    1.31163   1.32187   1.32487   1.32985   1.33206
 Alpha virt. eigenvalues --    1.33278   1.33463   1.33663   1.33895   1.34071
 Alpha virt. eigenvalues --    1.34292   1.34340   1.34557   1.34783   1.34891
 Alpha virt. eigenvalues --    1.34941   1.35211   1.35637   1.35790   1.36107
 Alpha virt. eigenvalues --    1.36171   1.36550   1.36734   1.36827   1.36990
 Alpha virt. eigenvalues --    1.37194   1.37327   1.37553   1.37885   1.37914
 Alpha virt. eigenvalues --    1.38179   1.38497   1.38707   1.38976   1.39113
 Alpha virt. eigenvalues --    1.39361   1.39508   1.39623   1.39788   1.40210
 Alpha virt. eigenvalues --    1.40339   1.40490   1.40558   1.40726   1.40964
 Alpha virt. eigenvalues --    1.41095   1.41242   1.41491   1.41903   1.42038
 Alpha virt. eigenvalues --    1.42570   1.43059   1.43281   1.43423   1.43470
 Alpha virt. eigenvalues --    1.43894   1.44254   1.44546   1.44645   1.45665
 Alpha virt. eigenvalues --    1.46293   1.47134   1.47584   1.47696   1.48075
 Alpha virt. eigenvalues --    1.48237   1.48634   1.49197   1.49598   1.49892
 Alpha virt. eigenvalues --    1.50482   1.51008   1.51321   1.51899   1.53288
 Alpha virt. eigenvalues --    1.53687   1.55373   1.55781   1.55805   1.56003
 Alpha virt. eigenvalues --    1.56174   1.56363   1.56670   1.56753   1.57160
 Alpha virt. eigenvalues --    1.57187   1.58022   1.58263   1.59232   1.59303
 Alpha virt. eigenvalues --    1.59821   1.60233   1.60356   1.60470   1.60549
 Alpha virt. eigenvalues --    1.60697   1.61200   1.61917   1.62209   1.62419
 Alpha virt. eigenvalues --    1.64124   1.64432   1.65115   1.65750   1.66786
 Alpha virt. eigenvalues --    1.67492   1.67931   1.69865   1.70540   1.70876
 Alpha virt. eigenvalues --    1.71289   1.71657   1.72350   1.73290   1.74153
 Alpha virt. eigenvalues --    1.75248   1.75444   1.75554   1.75930   1.76732
 Alpha virt. eigenvalues --    1.76917   1.76978   1.77594   1.77839   1.78726
 Alpha virt. eigenvalues --    1.78858   1.79352   1.79871   1.80490   1.80747
 Alpha virt. eigenvalues --    1.81187   1.81288   1.82095   1.82318   1.82945
 Alpha virt. eigenvalues --    1.83048   1.83264   1.83941   1.84175   1.84528
 Alpha virt. eigenvalues --    1.85187   1.85532   1.85752   1.86108   1.86326
 Alpha virt. eigenvalues --    1.86548   1.87160   1.87420   1.88153   1.88661
 Alpha virt. eigenvalues --    1.89366   1.89934   1.90165   1.90350   1.90383
 Alpha virt. eigenvalues --    1.90802   1.90979   1.91316   1.92342   1.93308
 Alpha virt. eigenvalues --    1.94872   1.95287   1.95459   1.95670   1.96042
 Alpha virt. eigenvalues --    1.98168   1.99283   1.99479   1.99548   2.04196
 Alpha virt. eigenvalues --    2.06286   2.07212   2.08173   2.08554   2.08753
 Alpha virt. eigenvalues --    2.09033   2.09144   2.09523   2.10179   2.11013
 Alpha virt. eigenvalues --    2.11519   2.11981   2.12716   2.14760   2.15658
 Alpha virt. eigenvalues --    2.15989   2.16848   2.17266   2.17452   2.17813
 Alpha virt. eigenvalues --    2.20057   2.20463   2.20534   2.20733   2.20896
 Alpha virt. eigenvalues --    2.21194   2.22225   2.24285   2.25370   2.26086
 Alpha virt. eigenvalues --    2.26415   2.26775   2.27345   2.28480   2.28934
 Alpha virt. eigenvalues --    2.29152   2.29847   2.30400   2.33509   2.35690
 Alpha virt. eigenvalues --    2.36796   2.40205   2.40983   2.41034   2.43621
 Alpha virt. eigenvalues --    2.44288   2.50471   2.51665   2.57260   2.64724
 Alpha virt. eigenvalues --    2.64786   2.64924   2.65474   2.65985   2.66585
 Alpha virt. eigenvalues --    2.66781   2.66831   2.66937   2.66962   2.67053
 Alpha virt. eigenvalues --    2.67093   2.67152   2.67321   2.67350   2.67407
 Alpha virt. eigenvalues --    2.67642   2.67681   2.67800   2.67843   2.67900
 Alpha virt. eigenvalues --    2.68636   2.68908   2.69221   2.69378   2.70006
 Alpha virt. eigenvalues --    2.70184   2.70288   2.70636   2.70708   2.70815
 Alpha virt. eigenvalues --    2.70980   2.71368   2.71427   2.71524   2.71588
 Alpha virt. eigenvalues --    2.71650   2.71909   2.72695   2.72914   2.72970
 Alpha virt. eigenvalues --    2.73097   2.73192   2.73254   2.73332   2.73369
 Alpha virt. eigenvalues --    2.73495   2.73752   2.73875   2.73899   2.73989
 Alpha virt. eigenvalues --    2.74051   2.74142   2.74313   2.74529   2.74694
 Alpha virt. eigenvalues --    2.74757   2.74902   2.75053   2.75575   2.75950
 Alpha virt. eigenvalues --    2.76160   2.76295   2.76448   2.76706   2.76894
 Alpha virt. eigenvalues --    2.77065   2.77185   2.77200   2.78427   2.78573
 Alpha virt. eigenvalues --    2.78632   2.78896   2.79800   2.80066   2.80164
 Alpha virt. eigenvalues --    2.81084   2.81811   2.81820   2.82119   2.82317
 Alpha virt. eigenvalues --    2.82346   2.82724   2.83107   2.83274   2.83660
 Alpha virt. eigenvalues --    2.83778   2.83925   2.83995   2.84242   2.85103
 Alpha virt. eigenvalues --    2.85562   2.86131   2.86215   2.86313   2.86375
 Alpha virt. eigenvalues --    2.86602   2.86786   2.86910   2.88215   2.88514
 Alpha virt. eigenvalues --    2.88682   2.89079   2.89669   2.89732   2.89831
 Alpha virt. eigenvalues --    2.89937   2.90004   2.90096   2.90573   2.90639
 Alpha virt. eigenvalues --    2.90760   2.91749   2.91896   2.92052   2.92078
 Alpha virt. eigenvalues --    2.92279   2.92493   2.92769   2.92915   2.93054
 Alpha virt. eigenvalues --    2.93360   2.93525   2.93658   2.93996   2.94120
 Alpha virt. eigenvalues --    2.94178   2.95006   2.95179   2.95389   2.95732
 Alpha virt. eigenvalues --    2.95821   2.95860   2.96404   2.96591   2.96661
 Alpha virt. eigenvalues --    2.96744   2.96933   2.96971   2.97206   2.97412
 Alpha virt. eigenvalues --    2.97587   2.97722   2.97921   2.98340   2.99142
 Alpha virt. eigenvalues --    2.99332   2.99397   2.99660   2.99736   3.00039
 Alpha virt. eigenvalues --    3.00096   3.00416   3.01042   3.01388   3.01453
 Alpha virt. eigenvalues --    3.02734   3.03160   3.03375   3.03730   3.05178
 Alpha virt. eigenvalues --    3.06534   3.06738   3.07175   3.11054   3.11647
 Alpha virt. eigenvalues --    3.11772   3.11892   3.12218   3.12672   3.13732
 Alpha virt. eigenvalues --    3.13867   3.14023   3.16827   3.19773   3.21743
 Alpha virt. eigenvalues --    3.21854   3.23932   3.32601   3.41154   3.41509
 Alpha virt. eigenvalues --    3.42150   3.43189   3.44911   3.44935   3.45871
 Alpha virt. eigenvalues --    3.46311   3.46386   3.47209   3.47466   3.47834
 Alpha virt. eigenvalues --    3.48267   3.51200   3.51785   3.52335   3.53565
 Alpha virt. eigenvalues --    3.53886   3.54320   3.54652   3.54801   3.55007
 Alpha virt. eigenvalues --    3.55243   3.55360   3.55535   3.56623   3.57456
 Alpha virt. eigenvalues --    3.57665   3.58490   3.59468   3.59610   3.60294
 Alpha virt. eigenvalues --    3.60616   3.61248   3.61533   3.62077   3.62398
 Alpha virt. eigenvalues --    3.69494   3.74787  68.64177  68.65317  68.66300
 Alpha virt. eigenvalues --   68.68393  68.72556  68.73594  68.81654  68.82638
 Alpha virt. eigenvalues --   68.83372  68.85582  68.86767  68.88063 576.22616
 Alpha virt. eigenvalues --  576.23730 576.24693 576.26740 576.30909 576.31935
 Alpha virt. eigenvalues --  576.39845 576.40806 576.41520 576.43636 576.44792
 Alpha virt. eigenvalues --  576.46079
          Condensed to atoms (all electrons):
 Mulliken charges:
               1
     1  Cl  -0.892947
     2  C   -0.080423
     3  C    0.049065
     4  C   -0.079566
     5  C   -0.033726
     6  C   -0.033909
     7  C   -0.049681
     8  H    0.030165
     9  H    0.029130
    10  H    0.040996
    11  H    0.036817
    12  H    0.039813
    13  C   -0.124505
    14  C    0.024551
    15  H    0.020811
    16  H    0.036224
    17  H    0.024584
    18  O   -0.663846
    19  O   -0.663390
    20  O   -0.655368
    21  O   -0.664269
    22  W    1.734996
    23  W    1.677557
    24  W    1.687646
    25  W    1.697863
    26  W    1.677822
    27  W    1.729189
    28  W    1.620516
    29  W    1.688672
    30  O   -0.320161
    31  O   -0.365815
    32  O   -0.367874
    33  O   -0.360057
    34  O   -0.664734
    35  O   -0.671270
    36  O   -0.661735
    37  O   -0.664571
    38  O   -0.368020
    39  O   -0.364863
    40  O   -0.297418
    41  O   -0.365147
    42  O   -0.670684
    43  O   -0.664294
    44  O   -0.661054
    45  O   -0.666066
    46  O   -0.368348
    47  O   -0.320464
    48  O   -0.361834
    49  O   -0.362190
    50  W    1.675116
    51  W    1.681391
    52  W    1.684941
    53  W    1.687314
    54  O   -0.726405
    55  O   -0.708947
    56  O   -0.726504
    57  O   -0.724209
    58  O   -0.706742
    59  O   -0.727649
    60  O   -0.726258
    61  O   -0.721762
    62  O   -0.725725
    63  O   -0.708197
    64  O   -0.725848
    65  O   -0.726943
    66  O   -0.802474
    67  O   -0.801665
    68  O   -0.798804
    69  O   -0.810495
    70  K    0.863425
    71  K    0.862773
    72  K    0.860554
    73  V    1.194924
 Sum of Mulliken charges =  -1.00000
 Mulliken charges with hydrogens summed into heavy atoms:
               1
     1  Cl  -0.892947
     2  C   -0.050257
     3  C    0.049065
     4  C   -0.050436
     5  C    0.007269
     6  C    0.002909
     7  C   -0.009867
    13  C   -0.103694
    14  C    0.085359
    18  O   -0.663846
    19  O   -0.663390
    20  O   -0.655368
    21  O   -0.664269
    22  W    1.734996
    23  W    1.677557
    24  W    1.687646
    25  W    1.697863
    26  W    1.677822
    27  W    1.729189
    28  W    1.620516
    29  W    1.688672
    30  O   -0.320161
    31  O   -0.365815
    32  O   -0.367874
    33  O   -0.360057
    34  O   -0.664734
    35  O   -0.671270
    36  O   -0.661735
    37  O   -0.664571
    38  O   -0.368020
    39  O   -0.364863
    40  O   -0.297418
    41  O   -0.365147
    42  O   -0.670684
    43  O   -0.664294
    44  O   -0.661054
    45  O   -0.666066
    46  O   -0.368348
    47  O   -0.320464
    48  O   -0.361834
    49  O   -0.362190
    50  W    1.675116
    51  W    1.681391
    52  W    1.684941
    53  W    1.687314
    54  O   -0.726405
    55  O   -0.708947
    56  O   -0.726504
    57  O   -0.724209
    58  O   -0.706742
    59  O   -0.727649
    60  O   -0.726258
    61  O   -0.721762
    62  O   -0.725725
    63  O   -0.708197
    64  O   -0.725848
    65  O   -0.726943
    66  O   -0.802474
    67  O   -0.801665
    68  O   -0.798804
    69  O   -0.810495
    70  K    0.863425
    71  K    0.862773
    72  K    0.860554
    73  V    1.194924
 Electronic spatial extent (au):  <R**2>=         317253.2482
 Charge=             -1.0000 electrons
 Dipole moment (field-independent basis, Debye):
    X=             50.2103    Y=            -51.1099    Z=            -38.7712  Tot=             81.4648
 Quadrupole moment (field-independent basis, Debye-Ang):
   XX=          -1040.4215   YY=           -888.7663   ZZ=           -915.9948
   XY=            446.0832   XZ=            449.2859   YZ=           -476.5949
 Traceless Quadrupole moment (field-independent basis, Debye-Ang):
   XX=            -92.0273   YY=             59.6279   ZZ=             32.3994
   XY=            446.0832   XZ=            449.2859   YZ=           -476.5949
 Octapole moment (field-independent basis, Debye-Ang**2):
  XXX=          13187.7507  YYY=          -1078.9801  ZZZ=         -19167.9871  XYY=           6040.1907
  XXY=          -3523.7237  XXZ=          -9272.1250  XZZ=           7241.5637  YZZ=          -4158.1232
  YYZ=          -9044.0031  XYZ=           4714.4409
 Hexadecapole moment (field-independent basis, Debye-Ang**3):
 XXXX=        -155623.4953 YYYY=         -54091.7357 ZZZZ=        -346678.5494 XXXY=          35218.7071
 XXXZ=         120245.1078 YYYX=          20630.9160 YYYZ=         -12899.9248 ZZZX=         126522.1450
 ZZZY=         -35441.1980 XXYY=         -55049.2576 XXZZ=        -106195.2657 YYZZ=         -99868.2516
 XXYZ=         -40926.1164 YYXZ=          61213.9169 ZZXY=          49513.2229
 N-N= 2.097660615807D+04 E-N=-5.903761188619D+04  KE= 6.765153475112D+03
   1 Symmetry operations used in ECPInt.
 ECPInt:  NShTT=  127765 NPrTT=  468030 LenC2=   96512 LenP2D=  220874.
 LDataN:  DoStor=T MaxTD1= 9 Len=  602
 D1PCM: PCM CHGder 1st derivatives, ID1Alg=3 FixD1E=F DoIter=F DoCFld=F I1PDM=0.
 Calling FoFJK, ICntrl=      2127 FMM=T ISym2X=0 I1Cent= 0 IOpClX= 0 NMat=1 NMatS=1 NMatT=0.
 Defaulting to unpruned grid for atomic number  74.
 Defaulting to unpruned grid for atomic number  74.
 Defaulting to unpruned grid for atomic number  74.
 Defaulting to unpruned grid for atomic number  74.
 Defaulting to unpruned grid for atomic number  74.
 Defaulting to unpruned grid for atomic number  74.
 Defaulting to unpruned grid for atomic number  74.
 Defaulting to unpruned grid for atomic number  74.
 Defaulting to unpruned grid for atomic number  74.
 Defaulting to unpruned grid for atomic number  74.
 Defaulting to unpruned grid for atomic number  74.
 Defaulting to unpruned grid for atomic number  74.
 Defaulting to unpruned grid for atomic number  74.
 Defaulting to unpruned grid for atomic number  74.
 Defaulting to unpruned grid for atomic number  74.
 Defaulting to unpruned grid for atomic number  74.
 Defaulting to unpruned grid for atomic number  74.
 Defaulting to unpruned grid for atomic number  74.
 Defaulting to unpruned grid for atomic number  74.
 Defaulting to unpruned grid for atomic number  74.
 Defaulting to unpruned grid for atomic number  74.
 Defaulting to unpruned grid for atomic number  74.
 Defaulting to unpruned grid for atomic number  74.
 Defaulting to unpruned grid for atomic number  74.
 Defaulting to unpruned grid for atomic number  74.
 Defaulting to unpruned grid for atomic number  74.
 Defaulting to unpruned grid for atomic number  74.
 Defaulting to unpruned grid for atomic number  74.
 Defaulting to unpruned grid for atomic number  74.
 Defaulting to unpruned grid for atomic number  74.
 Defaulting to unpruned grid for atomic number  74.
 Defaulting to unpruned grid for atomic number  74.
 Defaulting to unpruned grid for atomic number  74.
 Defaulting to unpruned grid for atomic number  74.
 Defaulting to unpruned grid for atomic number  74.
 Defaulting to unpruned grid for atomic number  74.
 Defaulting to unpruned grid for atomic number  74.
 Defaulting to unpruned grid for atomic number  74.
 Defaulting to unpruned grid for atomic number  74.
 Defaulting to unpruned grid for atomic number  74.
 Defaulting to unpruned grid for atomic number  74.
 Defaulting to unpruned grid for atomic number  74.
 Defaulting to unpruned grid for atomic number  74.
 Defaulting to unpruned grid for atomic number  74.
 Defaulting to unpruned grid for atomic number  74.
 Defaulting to unpruned grid for atomic number  74.
 Defaulting to unpruned grid for atomic number  74.
 Defaulting to unpruned grid for atomic number  74.
 Defaulting to unpruned grid for atomic number  74.
 Defaulting to unpruned grid for atomic number  74.
 Defaulting to unpruned grid for atomic number  74.
 Defaulting to unpruned grid for atomic number  74.
 Defaulting to unpruned grid for atomic number  74.
 Defaulting to unpruned grid for atomic number  74.
 Defaulting to unpruned grid for atomic number  74.
 Defaulting to unpruned grid for atomic number  74.
 -------------------------------------------------------------------
 Center     Atomic                   Forces (Hartrees/Bohr)
 Number     Number              X              Y              Z
 -------------------------------------------------------------------
      1       17          -0.003261392    0.008295624    0.002531748
      2        6          -0.001569338   -0.000767400   -0.001854247
      3        6          -0.000909576   -0.001949194    0.003523069
      4        6           0.001348160    0.001980678    0.000548180
      5        6           0.000805774   -0.000121019    0.001329274
      6        6           0.000046156   -0.000305556    0.000858748
      7        6          -0.001025153   -0.001273890    0.000353754
      8        1          -0.000172113    0.000275431   -0.000169325
      9        1          -0.000326061   -0.000032339   -0.000027966
     10        1          -0.000132808   -0.000237880    0.000204718
     11        1           0.000228381   -0.000174984    0.000047871
     12        1           0.000149272    0.000109340    0.000163952
     13        6           0.007608307    0.010998404   -0.007537611
     14        6          -0.001522675   -0.017456030    0.000013559
     15        1          -0.001100210    0.000447538    0.000120022
     16        1           0.000033311    0.000627216    0.000512516
     17        1          -0.001463914    0.000718204   -0.000684695
     18        8          -0.003305079    0.000483791    0.000816653
     19        8           0.003181230   -0.000780245    0.000979711
     20        8           0.002596174   -0.002941722   -0.000532189
     21        8          -0.002346049    0.002286331   -0.000991736
     22       74           0.001665716    0.010359924   -0.009599031
     23       74          -0.002447783   -0.010166708   -0.009933519
     24       74           0.006601011    0.008433333    0.009845173
     25       74          -0.007157705   -0.007256783    0.010093141
     26       74           0.008095451   -0.007572685   -0.010776774
     27       74          -0.008100936    0.008074450   -0.010491000
     28       74          -0.011497831    0.003048062    0.010744207
     29       74           0.010872537   -0.001791960    0.010722801
     30        8          -0.000525936   -0.002677939    0.003265893
     31        8           0.000248451    0.003024770    0.003160208
     32        8          -0.002264765   -0.001964132   -0.003075180
     33        8           0.002310857    0.001892296   -0.003283435
     34        8          -0.001093528   -0.000698270    0.003169790
     35        8           0.001394352    0.000117417    0.003378098
     36        8           0.000718988   -0.001501864   -0.003194945
     37        8          -0.000324697    0.001260612   -0.003324767
     38        8          -0.004378220   -0.001831005   -0.001235156
     39        8           0.004410747    0.001774742   -0.001317566
     40        8           0.002063387   -0.005889910    0.000857667
     41        8          -0.001052110    0.004741400    0.001261601
     42        8          -0.001968068   -0.002681101    0.001370596
     43        8           0.002380609    0.002475567    0.001080480
     44        8          -0.000325352   -0.003588826   -0.000633250
     45        8           0.000875457    0.003304463   -0.001334226
     46        8          -0.002661841    0.002733627    0.003144518
     47        8           0.002786750   -0.002325131    0.003263371
     48        8           0.004060504   -0.000601882   -0.003487782
     49        8          -0.003720270    0.000441681   -0.003266527
     50       74           0.014228822    0.004760135    0.002978808
     51       74          -0.014600331   -0.003801350    0.003292837
     52       74          -0.005606639    0.015483187   -0.003193345
     53       74           0.004773216   -0.014270693   -0.002842865
     54        8          -0.000619244    0.001462184    0.002030554
     55        8           0.000723868   -0.001502899    0.001939578
     56        8           0.001692240   -0.000184280   -0.002103913
     57        8          -0.001303101   -0.000522523   -0.001966088
     58        8           0.000268216   -0.002406298    0.001092929
     59        8           0.000415399    0.002168215    0.001369354
     60        8          -0.001385920   -0.001661758   -0.001463484
     61        8           0.001605673    0.001369210   -0.001387888
     62        8          -0.001210886    0.001948854    0.000725202
     63        8           0.001085476   -0.002477172    0.000460537
     64        8           0.002276701   -0.000206297   -0.000977276
     65        8          -0.002364184   -0.000232743   -0.000793266
     66        8          -0.026455285   -0.004852701    0.016856715
     67        8           0.026798896    0.005610276    0.016828670
     68        8           0.011222004   -0.025492454   -0.016986378
     69        8          -0.011004152    0.024318376   -0.017240558
     70       19           0.000204937   -0.000976661   -0.000653322
     71       19           0.000833876    0.000093070    0.000691609
     72       19          -0.000973816   -0.000366017    0.000583488
     73       23          -0.000433936    0.000423896    0.000147710
 -------------------------------------------------------------------
 Cartesian Forces:  Max     0.026798896 RMS     0.006082521

 GradGradGradGradGradGradGradGradGradGradGradGradGradGradGradGradGradGrad
 Berny optimization.
 Search for a local minimum.
 Step number   1 out of a maximum of    2
 All quantities printed in internal units (Hartrees-Bohrs-Radians)
 Second derivative matrix not updated -- first step.
 ITU=  0
     Eigenvalues ---    0.00000   0.00000   0.00000   0.00010   0.00093
     Eigenvalues ---    0.00095   0.00256   0.00543   0.00641   0.01642
     Eigenvalues ---    0.01950   0.02903   0.02928   0.03211   0.03430
     Eigenvalues ---    0.03452   0.03724   0.03733   0.04159   0.04499
     Eigenvalues ---    0.04604   0.04615   0.04645   0.04843   0.04855
     Eigenvalues ---    0.04993   0.05359   0.05574   0.05603   0.06373
     Eigenvalues ---    0.06412   0.06533   0.06783   0.06861   0.07047
     Eigenvalues ---    0.07302   0.07393   0.07602   0.08368   0.08391
     Eigenvalues ---    0.08722   0.08759   0.08907   0.08944   0.09740
     Eigenvalues ---    0.09968   0.10115   0.10423   0.10469   0.10555
     Eigenvalues ---    0.10826   0.10899   0.11583   0.11683   0.12061
     Eigenvalues ---    0.12095   0.12180   0.12543   0.12557   0.12676
     Eigenvalues ---    0.12708   0.12799   0.12839   0.13100   0.13147
     Eigenvalues ---    0.13823   0.13994   0.14334   0.14561   0.14746
     Eigenvalues ---    0.16911   0.16946   0.17105   0.17152   0.17590
     Eigenvalues ---    0.17686   0.18580   0.19863   0.20014   0.20262
     Eigenvalues ---    0.20918   0.21075   0.21998   0.22083   0.22162
     Eigenvalues ---    0.22608   0.23177   0.23405   0.23983   0.24018
     Eigenvalues ---    0.24631   0.24771   0.24963   0.25601   0.26219
     Eigenvalues ---    0.26360   0.26576   0.27630   0.27722   0.27963
     Eigenvalues ---    0.28332   0.28364   0.28900   0.29643   0.29950
     Eigenvalues ---    0.30551   0.30660   0.30678   0.30751   0.30794
     Eigenvalues ---    0.30986   0.31232   0.31437   0.31587   0.32396
     Eigenvalues ---    0.32569   0.32612   0.32745   0.32916   0.33464
     Eigenvalues ---    0.33563   0.35097   0.35583   0.35896   0.36908
     Eigenvalues ---    0.37502   0.37669   0.37829   0.38344   0.38618
     Eigenvalues ---    0.38942   0.39254   0.40239   0.40303   0.41217
     Eigenvalues ---    0.42300   0.42337   0.43589   0.44242   0.44853
     Eigenvalues ---    0.45395   0.45633   0.45981   0.48045   0.48413
     Eigenvalues ---    0.48612   0.48952   0.49032   0.49696   0.49771
     Eigenvalues ---    0.50107   0.50878   0.51373   0.52020   0.52450
     Eigenvalues ---    0.53183   0.53902   0.56166   0.58622   0.64488
     Eigenvalues ---    0.67524   0.76676   0.81522   0.82744   0.96905
     Eigenvalues ---    0.97264   0.98784   0.99343   1.01667   1.04463
     Eigenvalues ---    1.07378   1.11202   1.11732   1.12286   1.15574
     Eigenvalues ---    1.18888   1.19364   1.20465   1.22191   1.22636
     Eigenvalues ---    1.22819   1.26280   1.26641   1.26850   1.27177
     Eigenvalues ---    1.27689   1.29258   1.29580   1.45224   1.45615
     Eigenvalues ---    1.45776   1.48155   1.51464   1.51834   1.52144
     Eigenvalues ---    1.52743   1.55787   1.55836   1.57223   1.58603
     Eigenvalues ---    1.58715   1.59405   1.61805   1.64374   1.74458
     Eigenvalues ---    1.85357   1.88786   1.93201   1.93986   1.94807
     Eigenvalues ---    2.04152   2.09788   3.34927
 Eigenvalue     1 is   0.00D+00 Eigenvector:
                          Y11       Y12       Y6        Y7        Y10
   1                    0.17432   0.17432   0.17432   0.17432   0.17432
                          Y5        Y2        Y8        Y4        Y3
   1                    0.17432   0.17432   0.17432   0.17432   0.17432
 Eigenvalue     2 is   2.95D-07 Eigenvector:
                          Y16       X16       X11       Y11       Y15
   1                    0.31763  -0.27128   0.26578  -0.24541   0.23600
                          Y14       X14       Y17       Y13       X6
   1                    0.23185  -0.19185   0.18843   0.18629   0.18487
 Eigenvalue     3 is   2.75D-06 Eigenvector:
                          X9        X10       Y12       X12       Y8
   1                    0.33720   0.29349   0.27030  -0.25113   0.25090
                          Y9        X15       Y10       X17       X8
   1                   -0.24422   0.23041  -0.22455  -0.20984  -0.20863
 Quadratic step=2.996D+01 exceeds max=3.000D-01 adjusted using Lamda=-1.299D-02.
 Angle between NR and scaled steps=  39.26 degrees.
 Angle between quadratic step and forces=  65.66 degrees.
 Linear search not attempted -- first point.
 B after Tr=    -0.000447    0.006971    0.001393
         Rot=    1.000000   -0.000136    0.000012    0.000047 Ang=  -0.02 deg.
 Variable       Old X    -DE/DX   Delta X   Delta X   Delta X     New X
                                 (Linear)    (Quad)   (Total)
    X1      -18.22080  -0.00326   0.00000  -0.00320  -0.00266 -18.22347
    Y1       15.62855   0.00830   0.00000   0.00831   0.01158  15.64013
    Z1       19.91993   0.00253   0.00000   0.00264   0.00784  19.92777
    X2      -15.77719  -0.00157   0.00000  -0.00972  -0.00997 -15.78717
    Y2        8.04070  -0.00077   0.00000  -0.01379  -0.01160   8.02910
    Z2       23.07746  -0.00185   0.00000  -0.00925  -0.00606  23.07141
    X3      -17.27915  -0.00091   0.00000   0.00048   0.00022 -17.27893
    Y3        7.43300  -0.00195   0.00000  -0.02662  -0.02372   7.40928
    Z3       20.96775   0.00352   0.00000  -0.00937  -0.00638  20.96137
    X4      -19.00551   0.00135   0.00000  -0.01015  -0.01060 -19.01611
    Y4        5.42314   0.00198   0.00000  -0.00890  -0.00590   5.41724
    Z4       21.19497   0.00055   0.00000   0.01501   0.01741  21.21238
    X5      -19.28765   0.00081   0.00000  -0.00542  -0.00604 -19.29369
    Y5        4.12612  -0.00012   0.00000  -0.00353  -0.00112   4.12500
    Z5       23.46336   0.00133   0.00000   0.02156   0.02360  23.48697
    X6      -17.82499   0.00005   0.00000  -0.00062  -0.00123 -17.82622
    Y6        4.78952  -0.00031   0.00000  -0.00419  -0.00249   4.78703
    Z6       25.55532   0.00086   0.00000   0.01662   0.01888  25.57421
    X7      -16.05105  -0.00103   0.00000  -0.00724  -0.00767 -16.05872
    Y7        6.73266  -0.00127   0.00000  -0.00226  -0.00067   6.73200
    Z7       25.34285   0.00035   0.00000   0.00130   0.00413  25.34698
    X8      -14.37590  -0.00017   0.00000  -0.01145  -0.01156 -14.38746
    Y8        9.55099   0.00028   0.00000  -0.01151  -0.00941   9.54158
    Z8       22.94804  -0.00017   0.00000  -0.01566  -0.01203  22.93601
    X9      -20.15468  -0.00033   0.00000  -0.01620  -0.01666 -20.17134
    Y9        4.90146  -0.00003   0.00000  -0.01263  -0.00908   4.89238
    Z9       19.55845  -0.00003   0.00000   0.01959   0.02183  19.58028
   X10      -20.65374  -0.00013   0.00000  -0.00658  -0.00735 -20.66109
   Y10        2.58389  -0.00024   0.00000  -0.00270  -0.00020   2.58369
   Z10       23.60029   0.00020   0.00000   0.02615   0.02774  23.62803
   X11      -18.04507   0.00023   0.00000   0.00857   0.00782 -18.03726
   Y11        3.77598  -0.00017   0.00000  -0.00330  -0.00206   3.77393
   Z11       27.33970   0.00005   0.00000   0.01792   0.01991  27.35960
   X12      -14.87423   0.00015   0.00000  -0.00376  -0.00417 -14.87840
   Y12        7.23534   0.00011   0.00000   0.00789   0.00894   7.24428
   Z12       26.96395   0.00016   0.00000  -0.00327  -0.00027  26.96368
   X13      -17.16981   0.00761   0.00000   0.03731   0.03724 -17.13257
   Y13        8.83548   0.01100   0.00000  -0.06517  -0.06163   8.77385
   Z13       18.58628  -0.00754   0.00000  -0.04397  -0.04061  18.54567
   X14      -15.91383  -0.00152   0.00000   0.07392   0.07405 -15.83977
   Y14       11.01725  -0.01746   0.00000  -0.11724  -0.11370  10.90355
   Z14       18.17992   0.00001   0.00000  -0.05986  -0.05589  18.12403
   X15      -18.27721  -0.00110   0.00000  -0.00327  -0.00337 -18.28058
   Y15        8.02524   0.00045   0.00000  -0.04223  -0.03817   7.98708
   Z15       17.03526   0.00012   0.00000  -0.02620  -0.02308  17.01218
   X16      -15.95422   0.00003   0.00000   0.06339   0.06366 -15.89056
   Y16       11.91891   0.00063   0.00000  -0.09484  -0.09079  11.82811
   Z16       16.32657   0.00051   0.00000  -0.04807  -0.04386  16.28271
   X17      -14.72680  -0.00146   0.00000   0.04054   0.04073 -14.68607
   Y17       11.90399   0.00072   0.00000  -0.08968  -0.08664  11.81734
   Z17       19.60956  -0.00068   0.00000  -0.05057  -0.04632  19.56324
   X18       -1.84288  -0.00331   0.00000  -0.01922  -0.02033  -1.86321
   Y18       -3.41024   0.00048   0.00000   0.00237   0.00569  -3.40455
   Z18       14.10531   0.00082   0.00000   0.00770   0.00813  14.11344
   X19      -15.84789   0.00318   0.00000   0.01354   0.01252 -15.83536
   Y19       -2.51651  -0.00078   0.00000   0.00878   0.01340  -2.50311
   Z19       14.10127   0.00098   0.00000   0.01117   0.01151  14.11278
   X20      -13.26071   0.00260   0.00000   0.01027   0.00959 -13.25113
   Y20        2.54273  -0.00294   0.00000  -0.01119  -0.00835   2.53439
   Z20       19.79469  -0.00053   0.00000  -0.00229  -0.00053  19.79416
   X21       -4.41173  -0.00235   0.00000  -0.01014  -0.01184  -4.42357
   Y21       -8.31167   0.00229   0.00000   0.01731   0.01928  -8.29239
   Z21       19.94627  -0.00099   0.00000  -0.01086  -0.01183  19.93445
   X22       -6.41992   0.00167   0.00000  -0.00730  -0.00791  -6.42784
   Y22        1.31073   0.01036   0.00000   0.02069   0.02494   1.33568
   Z22       12.24766  -0.00960   0.00000  -0.00477  -0.00317  12.24449
   X23      -11.31726  -0.00245   0.00000   0.00354   0.00212 -11.31513
   Y23       -7.22486  -0.01017   0.00000  -0.00465   0.00002  -7.22484
   Z23       12.39453  -0.00993   0.00000  -0.00520  -0.00604  12.38848
   X24       -6.81527   0.00660   0.00000   0.01513   0.01432  -6.80095
   Y24        1.64368   0.00843   0.00000   0.00279   0.00454   1.64822
   Z24       21.56861   0.00985   0.00000   0.00949   0.01116  21.57977
   X25      -10.88884  -0.00716   0.00000  -0.01636  -0.01801 -10.90685
   Y25       -7.31088  -0.00726   0.00000   0.00327   0.00537  -7.30550
   Z25       21.69798   0.01009   0.00000   0.00566   0.00481  21.70279
   X26       -4.59386   0.00810   0.00000  -0.00566  -0.00685  -4.60071
   Y26       -4.89691  -0.00757   0.00000  -0.00552  -0.00140  -4.89831
   Z26       12.09410  -0.01078   0.00000  -0.00845  -0.00850  12.08560
   X27      -13.10026  -0.00810   0.00000  -0.00216  -0.00299 -13.10325
   Y27       -1.01300   0.00807   0.00000   0.02029   0.02522  -0.98778
   Z27       12.03241  -0.01049   0.00000  -0.00662  -0.00582  12.02659
   X28      -12.87135  -0.01150   0.00000  -0.00827  -0.00929 -12.88064
   Y28       -0.47728   0.00305   0.00000  -0.00418  -0.00194  -0.47921
   Z28       21.85339   0.01074   0.00000   0.01083   0.01179  21.86518
   X29       -4.80892   0.01087   0.00000   0.00752   0.00606  -4.80287
   Y29       -5.18010  -0.00179   0.00000   0.01031   0.01178  -5.16832
   Z29       21.93075   0.01072   0.00000   0.00685   0.00672  21.93748
   X30       -5.97586  -0.00053   0.00000   0.01037   0.01001  -5.96585
   Y30        3.54733  -0.00268   0.00000   0.01338   0.01820   3.56553
   Z30       10.01755   0.00327   0.00000   0.00274   0.00495  10.02250
   X31      -11.57077   0.00025   0.00000  -0.01045  -0.01204 -11.58281
   Y31       -9.58757   0.00302   0.00000   0.00215   0.00743  -9.58014
   Z31       10.23600   0.00316   0.00000   0.00046  -0.00102  10.23498
   X32       -5.06037  -0.00226   0.00000   0.00282   0.00211  -5.05826
   Y32        3.22958  -0.00196   0.00000   0.00833   0.00933   3.23891
   Z32       23.74149  -0.00308   0.00000   0.00396   0.00611  23.74761
   X33      -12.62543   0.00231   0.00000  -0.00350  -0.00535 -12.63077
   Y33       -8.82579   0.00189   0.00000  -0.00420  -0.00254  -8.82834
   Z33       23.93147  -0.00328   0.00000  -0.00066  -0.00197  23.92950
   X34       -5.02589  -0.00109   0.00000  -0.01395  -0.01481  -5.04070
   Y34       -1.73211  -0.00070   0.00000   0.00370   0.00827  -1.72384
   Z34       10.56150   0.00317   0.00000   0.01104   0.01184  10.57334
   X35      -12.65912   0.00139   0.00000   0.00827   0.00717 -12.65196
   Y35       -4.29030   0.00012   0.00000   0.01009   0.01537  -4.27494
   Z35       10.62080   0.00338   0.00000   0.01341   0.01334  10.63414
   X36      -10.01777   0.00072   0.00000   0.00678   0.00587 -10.01190
   Y36        1.03696  -0.00150   0.00000  -0.01122  -0.00965   1.02732
   Z36       23.35459  -0.00319   0.00000  -0.00618  -0.00475  23.34985
   X37       -7.65388  -0.00032   0.00000  -0.00583  -0.00746  -7.66134
   Y37       -6.68264   0.00126   0.00000   0.01373   0.01506  -6.66758
   Z37       23.44854  -0.00332   0.00000  -0.01142  -0.01202  23.43652
   X38        0.60154  -0.00438   0.00000   0.00382   0.00294   0.60449
   Y38       -0.04734  -0.00183   0.00000  -0.00443  -0.00227  -0.04961
   Z38       17.53064  -0.00124   0.00000  -0.00178  -0.00039  17.53025
   X39      -18.31195   0.00441   0.00000  -0.00729  -0.00870 -18.32064
   Y39       -5.74521   0.00177   0.00000   0.01292   0.01683  -5.72838
   Z39       17.61916  -0.00132   0.00000  -0.00104  -0.00164  17.61752
   X40      -11.99397   0.00206   0.00000   0.00206   0.00183 -11.99214
   Y40        6.47726  -0.00589   0.00000   0.00625   0.00990   6.48717
   Z40       16.37494   0.00086   0.00000   0.00906   0.01192  16.38687
   X41       -5.68699  -0.00105   0.00000   0.00349   0.00150  -5.68549
   Y41      -12.27454   0.00474   0.00000   0.00500   0.00802 -12.26652
   Z41       16.52385   0.00126   0.00000   0.00052  -0.00155  16.52230
   X42       -3.35455  -0.00197   0.00000  -0.01292  -0.01357  -3.36813
   Y42        1.40291  -0.00268   0.00000  -0.00186   0.00159   1.40450
   Z42       14.12240   0.00137   0.00000   0.01183   0.01352  14.13592
   X43      -14.35578   0.00238   0.00000   0.01008   0.00861 -14.34717
   Y43       -7.33806   0.00248   0.00000   0.01287   0.01731  -7.32075
   Z43       14.25128   0.00108   0.00000   0.01054   0.00960  14.26088
   X44       -8.47975  -0.00033   0.00000   0.00470   0.00417  -8.47558
   Y44        4.14729  -0.00359   0.00000  -0.01240  -0.00998   4.13731
   Z44       19.70076  -0.00063   0.00000  -0.00223   0.00008  19.70085
   X45       -9.20734   0.00088   0.00000  -0.00590  -0.00774  -9.21508
   Y45       -9.89330   0.00330   0.00000   0.01845   0.02089  -9.87241
   Z45       19.89890  -0.00133   0.00000  -0.01129  -0.01279  19.88611
   X46       -3.02644  -0.00266   0.00000  -0.00480  -0.00611  -3.03255
   Y46       -6.67214   0.00273   0.00000   0.00842   0.01298  -6.65916
   Z46        9.92241   0.00314   0.00000  -0.00649  -0.00698   9.91544
   X47      -14.75610   0.00279   0.00000  -0.00656  -0.00719 -14.76329
   Y47        0.51824  -0.00233   0.00000   0.00353   0.00923   0.52747
   Z47        9.77594   0.00326   0.00000  -0.00203  -0.00085   9.77509
   X48      -15.17652   0.00406   0.00000   0.00137   0.00031 -15.17621
   Y48       -0.30927  -0.00060   0.00000   0.00502   0.00688  -0.30239
   Z48       24.08035  -0.00349   0.00000   0.00689   0.00783  24.08818
   X49       -2.47802  -0.00372   0.00000  -0.00200  -0.00353  -2.48156
   Y49       -5.40922   0.00044   0.00000  -0.00160  -0.00094  -5.41016
   Z49       24.12684  -0.00327   0.00000   0.00300   0.00286  24.12970
   X50       -2.34538   0.01423   0.00000   0.00576   0.00481  -2.34056
   Y50       -1.02282   0.00476   0.00000   0.00609   0.00875  -1.01407
   Z50       16.70297   0.00298   0.00000   0.01203   0.01309  16.71606
   X51      -15.36392  -0.01460   0.00000  -0.00990  -0.01119 -15.37511
   Y51       -4.79606  -0.00380   0.00000   0.00471   0.00857  -4.78749
   Z51       16.76870   0.00329   0.00000   0.01337   0.01310  16.78180
   X52      -11.09516  -0.00561   0.00000  -0.00172  -0.00225 -11.09741
   Y52        3.50698   0.01548   0.00000   0.01350   0.01688   3.52386
   Z52       17.08994  -0.00319   0.00000  -0.00654  -0.00446  17.08549
   X53       -6.60194   0.00477   0.00000  -0.00125  -0.00299  -6.60492
   Y53       -9.29925  -0.01427   0.00000  -0.00239   0.00051  -9.29874
   Z53       17.31613  -0.00284   0.00000  -0.01291  -0.01420  17.30193
   X54       -7.95993  -0.00062   0.00000  -0.00262  -0.00389  -7.96382
   Y54       -5.88794   0.00146   0.00000  -0.00474  -0.00014  -5.88808
   Z54       11.47635   0.00203   0.00000  -0.00856  -0.00896  11.46739
   X55       -9.72448   0.00072   0.00000  -0.00415  -0.00488  -9.72936
   Y55       -0.11823  -0.00150   0.00000   0.02151   0.02631  -0.09192
   Z55       11.37352   0.00194   0.00000  -0.00711  -0.00597  11.36755
   X56      -11.65282   0.00169   0.00000  -0.01141  -0.01275 -11.66557
   Y56       -3.78292  -0.00018   0.00000  -0.00272  -0.00077  -3.78369
   Z56       22.50909  -0.00210   0.00000   0.00948   0.00956  22.51865
   X57       -5.99137  -0.00130   0.00000   0.01148   0.01032  -5.98105
   Y57       -1.87578  -0.00052   0.00000   0.00718   0.00860  -1.86718
   Z57       22.51910  -0.00197   0.00000   0.00984   0.01058  22.52969
   X58       -8.21661   0.00027   0.00000  -0.00403  -0.00455  -8.22117
   Y58        2.98392  -0.00241   0.00000   0.01670   0.02042   3.00435
   Z58       14.80727   0.00109   0.00000  -0.00467  -0.00266  14.80462
   X59       -9.46532   0.00042   0.00000   0.00182   0.00018  -9.46514
   Y59       -8.85577   0.00217   0.00000  -0.00505  -0.00125  -8.85702
   Z59       14.97554   0.00137   0.00000  -0.00797  -0.00921  14.96633
   X60       -4.37519  -0.00139   0.00000   0.01263   0.01183  -4.36336
   Y60        1.06212  -0.00166   0.00000   0.00500   0.00721   1.06933
   Z60       19.04036  -0.00146   0.00000   0.00976   0.01134  19.05170
   X61      -13.31121   0.00161   0.00000  -0.01508  -0.01662 -13.32784
   Y61       -6.83394   0.00137   0.00000   0.00319   0.00621  -6.82773
   Z61       19.14380  -0.00139   0.00000   0.00812   0.00734  19.15114
   X62       -4.85865  -0.00121   0.00000  -0.00273  -0.00423  -4.86287
   Y62       -7.39041   0.00195   0.00000  -0.00286   0.00054  -7.38987
   Z62       14.86777   0.00073   0.00000  -0.01117  -0.01190  14.85587
   X63      -12.85909   0.00109   0.00000  -0.00196  -0.00262 -12.86171
   Y63        1.49793  -0.00248   0.00000   0.01476   0.01893   1.51686
   Z63       14.74453   0.00046   0.00000  -0.00728  -0.00578  14.73875
   X64      -14.77711   0.00228   0.00000  -0.00871  -0.00982 -14.78694
   Y64       -2.22721  -0.00021   0.00000   0.00155   0.00470  -2.22251
   Z64       19.16613  -0.00098   0.00000   0.01204   0.01247  19.17860
   X65       -2.93162  -0.00236   0.00000   0.00563   0.00439  -2.92723
   Y65       -3.54603  -0.00023   0.00000   0.00641   0.00846  -3.53757
   Z65       19.16330  -0.00079   0.00000   0.00912   0.00948  19.17277
   X66       -6.33459  -0.02646   0.00000  -0.04984  -0.05085  -6.38544
   Y66       -2.19515  -0.00485   0.00000  -0.00073   0.00273  -2.19242
   Z66       15.14198   0.01686   0.00000   0.02786   0.02850  15.17048
   X67      -11.36231   0.02680   0.00000   0.04428   0.04312 -11.31919
   Y67       -3.70950   0.00561   0.00000   0.01568   0.01959  -3.68992
   Z67       15.18172   0.01683   0.00000   0.02913   0.02925  15.21097
   X68       -9.65736   0.01122   0.00000   0.02080   0.01986  -9.63750
   Y68       -0.40012  -0.02549   0.00000  -0.03868  -0.03589  -0.43601
   Z68       18.78822  -0.01699   0.00000  -0.02620  -0.02516  18.76307
   X69       -8.00650  -0.01100   0.00000  -0.02320  -0.02460  -8.03111
   Y69       -5.38738   0.02432   0.00000   0.04606   0.04867  -5.33871
   Z69       18.85200  -0.01724   0.00000  -0.02867  -0.02892  18.82308
   X70       -6.07443   0.00020   0.00000  -0.00161  -0.00340  -6.07783
   Y70      -11.59141  -0.00098   0.00000  -0.00465  -0.00000 -11.59141
   Z70       10.67283  -0.00065   0.00000  -0.00987  -0.01177  10.66106
   X71       -0.22387   0.00083   0.00000   0.01134   0.01034  -0.21354
   Y71        0.07262   0.00009   0.00000   0.00363   0.00430   0.07692
   Z71       23.29230   0.00069   0.00000   0.00936   0.01077  23.30306
   X72      -17.54293  -0.00097   0.00000  -0.01290  -0.01441 -17.55734
   Y72       -5.33329  -0.00037   0.00000   0.00152   0.00377  -5.32952
   Z72       23.47776   0.00058   0.00000   0.00963   0.00916  23.48691
   X73       -8.84407  -0.00043   0.00000  -0.00250  -0.00362  -8.84769
   Y73       -2.91704   0.00042   0.00000   0.00588   0.00907  -2.90797
   Z73       16.98844   0.00015   0.00000   0.00077   0.00116  16.98960
         Item               Value     Threshold  Converged?
 Maximum Force            0.026799     0.000450     NO 
 RMS     Force            0.006083     0.000300     NO 
 Maximum Displacement     0.113698     0.001800     NO 
 RMS     Displacement     0.020147     0.001200     NO 
 Predicted change in Energy=-6.093081D-03
 GradGradGradGradGradGradGradGradGradGradGradGradGradGradGradGradGradGrad

 Unable to Open any file for archive entry.
 1\1\GINC-X11P1N2\Force\RwB97XD\def2SVP\C8H8Cl1K3O40V1W12(1-)\MAYUMIAO\
 02-Jun-2024\0\\# def2svp wb97xd scrf=(smd,solvent=acetonitrile) g09def
 ault scf=(xqc,maxcycle=64) force guess=read nosymm\\Title Card\\-1,1\C
 l,-9.64203341,8.27027054,10.54117292\C,-8.34893148,4.2549572,12.212067
 62\C,-9.14373316,3.9333743,11.09565683\C,-10.05728156,2.86980378,11.21
 589482\C,-10.20658375,2.18345068,12.41627788\C,-9.43257641,2.53450591,
 13.52329516\C,-8.49384769,3.56277072,13.41085613\H,-7.60739868,5.05416
 426,12.14358168\H,-10.66539648,2.59373861,10.3498881\H,-10.92948906,1.
 36733761,12.48873488\H,-9.54904191,1.99816499,14.46754478\H,-7.8711022
 1,3.82877831,14.26870677\C,-9.08587135,4.67553466,9.8354359\C,-8.42123
 401,5.83007854,9.62040126\H,-9.67188245,4.24677659,9.01467144\H,-8.442
 60793,6.30721419,8.63964801\H,-7.79308766,6.29931822,10.37693197\O,-0.
 97521196,-1.80462256,7.46420855\O,-8.38634098,-1.33167812,7.46207062\O
 ,-7.01726813,1.34555665,10.47490024\O,-2.33458636,-4.39834844,10.55511
 281\W,-3.3972775,0.69361054,6.48118402\W,-5.98883395,-3.82323378,6.558
 90138\W,-3.60648759,0.86979712,11.41361446\W,-5.76212338,-3.86874969,1
 1.48207775\W,-2.43096668,-2.5913358,6.39992087\W,-6.93235883,-0.536057
 99,6.36727597\W,-6.81122665,-0.25256379,11.5643157\W,-2.54477348,-2.74
 119119,11.60525552\O,-3.16229134,1.87716836,5.30105688\O,-6.12299031,-
 5.07352473,5.41665925\O,-2.6778336,1.70901978,12.56345693\O,-6.6810876
 4,-4.6704095,12.66398862\O,-2.65958776,-0.91659211,5.58890555\O,-6.698
 91971,-2.27033112,5.62028742\O,-5.301176,0.54873651,12.35871866\O,-4.0
 50259,-3.53630103,12.40843446\O,0.31832237,-0.02505321,9.27681483\O,-9
 .69026449,-3.04023576,9.32365731\O,-6.34693347,3.42762063,8.66524754\O
 ,-3.00942388,-6.49540597,8.74404655\O,-1.77515338,0.74238654,7.4732516
 6\O,-7.59674984,-3.88313473,7.54145242\O,-4.48729298,2.19465143,10.425
 19452\O,-4.87231428,-5.23530716,10.53004624\O,-1.60152361,-3.5307448,5
 .25071477\O,-7.80859211,0.27424282,5.17320355\O,-8.03107093,-0.1636580
 2,12.74277252\O,-1.31131246,-2.86243653,12.76737477\W,-1.24111971,-0.5
 4125108,8.83883111\W,-8.13023389,-2.5379676,8.87361447\W,-5.8713072,1.
 85581465,9.04360875\W,-3.4935936,-4.92095119,9.16330363\O,-4.2122149,-
 3.11576474,6.07302092\O,-5.14597433,-0.0625622,6.01860974\O,-6.1664075
 9,-2.00183546,11.91129732\O,-3.1704985,-0.99261934,11.91659642\O,-4.34
 804367,1.57902421,7.83567159\O,-5.00883266,-4.68627297,7.92471257\O,-2
 .31524986,0.56204776,10.07572714\O,-7.04399146,-3.61636488,10.13046018
 \O,-2.57108463,-3.9108356,7.86768306\O,-6.80473499,0.79266961,7.802471
 04\O,-7.8197102,-1.17858835,10.14227844\O,-1.55134413,-1.87647964,10.1
 4077986\O,-3.35212073,-1.16162357,8.01279209\O,-6.01267539,-1.96298373
 ,8.03382144\O,-5.11045523,-0.21173267,9.94230013\O,-4.2368598,-2.85088
 006,9.9760497\K,-3.21445063,-6.13390884,5.64781817\K,-0.1184684,0.0384
 2803,12.32575165\K,-9.28331977,-2.82225344,12.42389319\V,-4.68007784,-
 1.54363144,8.98989689\\Version=ES64L-G16RevC.01\HF=-7327.7018834\RMSD=
 5.680e-09\RMSF=6.083e-03\Dipole=10.0047004,-21.8935581,2.4380189\Quadr
 upole=-68.4200472,44.3318909,24.0881562,331.6519448,334.033048,-354.33
 66363\PG=C01 [X(C8H8Cl1K3O40V1W12)]\\@
 The archive entry for this job was punched.


 ACTORS ARE SO FORTUNATE.  THEY CAN CHOOSE WHETHER
 THEY WILL APPEAR IN A TRAGEDY OR IN COMEDY,
 WHETHER THEY WILL SUFFER OF MAKE MERRY,
 LAUGH OR SHED TEARS.  BUT IN REAL LIFE IT IS DIFFERENT.
 MOST MEN AND WOMEN ARE FORCED TO PERFORM
 PARTS FOR WHICH THEY HAVE NO QUALIFICATIONS.
 THE WORLD IS A STAGE, BUT THE PLAY IS BADLY CAST.

                                   -- OSCAR WILDE
 Job cpu time:       0 days  8 hours 43 minutes 57.6 seconds.
 Elapsed time:       0 days  0 hours  9 minutes 54.6 seconds.
 File lengths (MBytes):  RWF=   1257 Int=      0 D2E=      0 Chk=    249 Scr=      1
 Normal termination of Gaussian 16 at Sun Jun  2 21:17:04 2024.
