 Entering Gaussian System, Link 0=g16
 Input=JOBS/57_A.gjf
 Output=JOBS/57_A.log
 Initial command:
 /data/app/gaussian/C01-avx2//g16/l1.exe "/tmp/Gau-689065.inp" -scrdir="/tmp/"
 Entering Link 1 = /data/app/gaussian/C01-avx2//g16/l1.exe PID=    689066.
  
 Copyright (c) 1988-2019, Gaussian, Inc.  All Rights Reserved.
  
 This is part of the Gaussian(R) 16 program.  It is based on
 the Gaussian(R) 09 system (copyright 2009, Gaussian, Inc.),
 the Gaussian(R) 03 system (copyright 2003, Gaussian, Inc.),
 the Gaussian(R) 98 system (copyright 1998, Gaussian, Inc.),
 the Gaussian(R) 94 system (copyright 1995, Gaussian, Inc.),
 the Gaussian 92(TM) system (copyright 1992, Gaussian, Inc.),
 the Gaussian 90(TM) system (copyright 1990, Gaussian, Inc.),
 the Gaussian 88(TM) system (copyright 1988, Gaussian, Inc.),
 the Gaussian 86(TM) system (copyright 1986, Carnegie Mellon
 University), and the Gaussian 82(TM) system (copyright 1983,
 Carnegie Mellon University). Gaussian is a federally registered
 trademark of Gaussian, Inc.
  
 This software contains proprietary and confidential information,
 including trade secrets, belonging to Gaussian, Inc.
  
 This software is provided under written license and may be
 used, copied, transmitted, or stored only in accord with that
 written license.
  
 The following legend is applicable only to US Government
 contracts under FAR:
  
                    RESTRICTED RIGHTS LEGEND
  
 Use, reproduction and disclosure by the US Government is
 subject to restrictions as set forth in subparagraphs (a)
 and (c) of the Commercial Computer Software - Restricted
 Rights clause in FAR 52.227-19.
  
 Gaussian, Inc.
 340 Quinnipiac St., Bldg. 40, Wallingford CT 06492
  
  
 ---------------------------------------------------------------
 Warning -- This program may not be used in any manner that
 competes with the business of Gaussian, Inc. or will provide
 assistance to any competitor of Gaussian, Inc.  The licensee
 of this program is prohibited from giving any competitor of
 Gaussian, Inc. access to this program.  By using this program,
 the user acknowledges that Gaussian, Inc. is engaged in the
 business of creating and licensing software in the field of
 computational chemistry and represents and warrants to the
 licensee that it is not a competitor of Gaussian, Inc. and that
 it will not use this program in any manner prohibited above.
 ---------------------------------------------------------------
  

 Cite this work as:
 Gaussian 16, Revision C.01,
 M. J. Frisch, G. W. Trucks, H. B. Schlegel, G. E. Scuseria, 
 M. A. Robb, J. R. Cheeseman, G. Scalmani, V. Barone, 
 G. A. Petersson, H. Nakatsuji, X. Li, M. Caricato, A. V. Marenich, 
 J. Bloino, B. G. Janesko, R. Gomperts, B. Mennucci, H. P. Hratchian, 
 J. V. Ortiz, A. F. Izmaylov, J. L. Sonnenberg, D. Williams-Young, 
 F. Ding, F. Lipparini, F. Egidi, J. Goings, B. Peng, A. Petrone, 
 T. Henderson, D. Ranasinghe, V. G. Zakrzewski, J. Gao, N. Rega, 
 G. Zheng, W. Liang, M. Hada, M. Ehara, K. Toyota, R. Fukuda, 
 J. Hasegawa, M. Ishida, T. Nakajima, Y. Honda, O. Kitao, H. Nakai, 
 T. Vreven, K. Throssell, J. A. Montgomery, Jr., J. E. Peralta, 
 F. Ogliaro, M. J. Bearpark, J. J. Heyd, E. N. Brothers, K. N. Kudin, 
 V. N. Staroverov, T. A. Keith, R. Kobayashi, J. Normand, 
 K. Raghavachari, A. P. Rendell, J. C. Burant, S. S. Iyengar, 
 J. Tomasi, M. Cossi, J. M. Millam, M. Klene, C. Adamo, R. Cammi, 
 J. W. Ochterski, R. L. Martin, K. Morokuma, O. Farkas, 
 J. B. Foresman, and D. J. Fox, Gaussian, Inc., Wallingford CT, 2019.
 
 ******************************************
 Gaussian 16:  ES64L-G16RevC.01  3-Jul-2019
                 2-Jun-2024 
 ******************************************
 %chk=a.chk
 %nprocshared=56
 Will use up to   56 processors via shared memory.
 %mem=96gb
 ----------------------------------------------------------------------
 # def2svp wb97xd scrf=(smd,solvent=acetonitrile) g09default scf=(xqc,m
 axcycle=64) force guess=read nosymm
 ----------------------------------------------------------------------
 1/10=7,30=1,38=1,158=3,167=1/1,3;
 2/12=2,15=1,17=6,18=5,40=1/2;
 3/5=43,7=101,11=2,25=1,27=10,30=1,70=32201,71=1,72=2,74=-58,75=-4,116=-2,158=3/1,2,3;
 4/5=1,60=-1/1;
 5/5=2,7=64,8=3,13=1,38=6,53=2,87=10/2,8;
 6/7=2,8=2,9=2,10=2,28=1,87=10/1;
 7/29=1,30=1,87=10/1,2,3,16;
 1/10=7,30=1,158=3,167=1/3;
 99//99;
 Using 2006 physical constants.
 ----------
 Title Card
 ----------
 Symbolic Z-matrix:
 Charge = -1 Multiplicity = 1
 17                   -9.64161   8.26946   10.54011 
 6                    -8.35059   4.25659   12.21138 
 6                    -9.14539   3.93424   11.09514 
 6                    -10.05912   2.87097   11.21614 
 6                    -10.20682   2.18397   12.41634 
 6                    -9.43083   2.53407   13.52243 
 6                    -8.4937    3.56375   13.40975 
 1                    -7.61086   5.05757   12.14325 
 1                    -10.66907   2.59615   10.35102 
 1                    -10.93041   1.36862   12.48972 
 1                    -9.54486   1.99619   14.466 
 1                    -7.87117   3.83083   14.26754 
 6                    -9.08845   4.67672   9.83512 
 6                    -8.42308   5.83099   9.62125 
 1                    -9.67586   4.24916   9.01472 
 1                    -8.44649   6.31159   8.64231 
 1                    -7.79257   6.29687   10.37786 
 8                    -0.97526  -1.80546   7.46368 
 8                    -8.38545  -1.3313    7.46212 
 8                    -7.01657   1.34498   10.47552 
 8                    -2.33453  -4.39834   10.55513 
 74                   -3.39622   0.6947    6.4825 
 74                   -5.98898  -3.82438   6.55933 
 74                   -3.60531   0.87031   11.41264 
 74                   -5.76252  -3.86992   11.48169 
 74                   -2.43159  -2.59102   6.39877 
 74                   -6.93088  -0.5366    6.36624 
 74                   -6.80982  -0.25328   11.56549 
 74                   -2.54534  -2.74152   11.60611 
 8                    -3.16096   1.87903   5.30309 
 8                    -6.12341  -5.0745    5.417 
 8                    -2.67679   1.70936   12.56268 
 8                    -6.68114  -4.67212   12.66351 
 8                    -2.65999  -0.91627   5.58884 
 8                    -6.69854  -2.27087   5.62031 
 8                    -5.29973   0.5483    12.35863 
 8                    -4.0505   -3.53686   12.40854 
 8                     0.31967  -0.02713   9.27634 
 8                    -9.69033  -3.03926   9.32305 
 8                    -6.34805   3.42697   8.66558 
 8                    -3.00851  -6.49543   8.7442 
 8                    -1.77418   0.74166   7.47346 
 8                    -7.59673  -3.88311   7.54172 
 8                    -4.4867    2.19457   10.42499 
 8                    -4.87211  -5.2357    10.52975 
 8                    -1.60224  -3.52967   5.24922 
 8                    -7.80706   0.27317   5.17181 
 8                    -8.02913  -0.1631    12.74438 
 8                    -1.31256  -2.86297   12.76888 
 74                   -1.24004  -0.54303   8.839 
 74                   -8.13     -2.53709   8.87353 
 74                   -5.87207   1.85509   9.04382 
 74                   -3.49281  -4.9211    9.16305 
 8                    -4.21259  -3.11633   6.07269 
 8                    -5.14514  -0.06214   6.01864 
 8                    -6.16632  -2.00272   11.91224 
 8                    -3.16985  -0.99276   11.91611 
 8                    -4.34749   1.5791    7.83642 
 8                    -5.00891  -4.6873    7.92461 
 8                    -2.31375   0.56178   10.07551 
 8                    -7.04422  -3.61669   10.13069 
 8                    -2.57142  -3.9111    7.86708 
 8                    -6.80423   0.79232   7.80235 
 8                    -7.81916  -1.17883   10.14316 
 8                    -1.55035  -1.87717   10.14126 
 8                    -3.35171  -1.16188   8.01309 
 8                    -6.012    -1.96349   8.03384 
 8                    -5.10976  -0.21206   9.94223 
 8                    -4.23698  -2.85118   9.97612 
 19                   -3.2149   -6.13433   5.64797 
 19                   -0.11963   0.03602   12.32454 
 19                   -9.28342  -2.82165   12.42272 
 23                   -4.67969  -1.54392   8.98994 
 

 GradGradGradGradGradGradGradGradGradGradGradGradGradGradGradGradGradGrad
 Berny optimization.
 Initialization pass.
 Trust Radius=3.00D-01 FncErr=1.00D-07 GrdErr=1.00D-07 EigMax=2.50D+02 EigMin=1.00D-04
 Number of steps in this run=      2 maximum allowed number of steps=      2.
 GradGradGradGradGradGradGradGradGradGradGradGradGradGradGradGradGradGrad

 Symmetry turned off by external request.
 Stoichiometry    C8H8ClK3O40VW12(1-)
 Framework group  C1[X(C8H8ClK3O40VW12)]
 Deg. of freedom   213
 Full point group                 C1      NOp   1
                          Input orientation:                          
 ---------------------------------------------------------------------
 Center     Atomic      Atomic             Coordinates (Angstroms)
 Number     Number       Type             X           Y           Z
 ---------------------------------------------------------------------
      1         17           0       -9.641614    8.269464   10.540114
      2          6           0       -8.350589    4.256587   12.211379
      3          6           0       -9.145386    3.934238   11.095137
      4          6           0      -10.059124    2.870972   11.216144
      5          6           0      -10.206825    2.183973   12.416342
      6          6           0       -9.430826    2.534075   13.522426
      7          6           0       -8.493702    3.563753   13.409747
      8          1           0       -7.610856    5.057570   12.143245
      9          1           0      -10.669067    2.596152   10.351018
     10          1           0      -10.930407    1.368622   12.489723
     11          1           0       -9.544864    1.996193   14.465997
     12          1           0       -7.871167    3.830829   14.267539
     13          6           0       -9.088446    4.676716    9.835118
     14          6           0       -8.423080    5.830991    9.621247
     15          1           0       -9.675856    4.249163    9.014724
     16          1           0       -8.446487    6.311588    8.642311
     17          1           0       -7.792568    6.296872   10.377861
     18          8           0       -0.975264   -1.805457    7.463675
     19          8           0       -8.385452   -1.331302    7.462119
     20          8           0       -7.016570    1.344979   10.475522
     21          8           0       -2.334528   -4.398342   10.555128
     22         74           0       -3.396219    0.694701    6.482503
     23         74           0       -5.988981   -3.824376    6.559326
     24         74           0       -3.605312    0.870307   11.412641
     25         74           0       -5.762525   -3.869916   11.481691
     26         74           0       -2.431594   -2.591022    6.398770
     27         74           0       -6.930880   -0.536601    6.366241
     28         74           0       -6.809820   -0.253275   11.565489
     29         74           0       -2.545340   -2.741521   11.606112
     30          8           0       -3.160959    1.879029    5.303093
     31          8           0       -6.123410   -5.074499    5.417000
     32          8           0       -2.676787    1.709356   12.562679
     33          8           0       -6.681138   -4.672118   12.663509
     34          8           0       -2.659988   -0.916267    5.588843
     35          8           0       -6.698539   -2.270867    5.620310
     36          8           0       -5.299728    0.548302   12.358630
     37          8           0       -4.050503   -3.536862   12.408537
     38          8           0        0.319672   -0.027126    9.276341
     39          8           0       -9.690330   -3.039262    9.323049
     40          8           0       -6.348048    3.426973    8.665580
     41          8           0       -3.008505   -6.495431    8.744200
     42          8           0       -1.774183    0.741663    7.473462
     43          8           0       -7.596729   -3.883108    7.541722
     44          8           0       -4.486703    2.194574   10.424986
     45          8           0       -4.872107   -5.235699   10.529748
     46          8           0       -1.602243   -3.529671    5.249219
     47          8           0       -7.807058    0.273174    5.171807
     48          8           0       -8.029135   -0.163098   12.744379
     49          8           0       -1.312559   -2.862969   12.768884
     50         74           0       -1.240036   -0.543026    8.839003
     51         74           0       -8.130001   -2.537092    8.873534
     52         74           0       -5.872067    1.855088    9.043817
     53         74           0       -3.492813   -4.921099    9.163050
     54          8           0       -4.212587   -3.116330    6.072690
     55          8           0       -5.145144   -0.062145    6.018642
     56          8           0       -6.166319   -2.002716   11.912244
     57          8           0       -3.169852   -0.992757   11.916106
     58          8           0       -4.347490    1.579105    7.836422
     59          8           0       -5.008912   -4.687295    7.924611
     60          8           0       -2.313747    0.561782   10.075509
     61          8           0       -7.044220   -3.616691   10.130688
     62          8           0       -2.571422   -3.911103    7.867083
     63          8           0       -6.804233    0.792324    7.802346
     64          8           0       -7.819161   -1.178829   10.143155
     65          8           0       -1.550348   -1.877170   10.141259
     66          8           0       -3.351709   -1.161880    8.013091
     67          8           0       -6.012003   -1.963488    8.033837
     68          8           0       -5.109760   -0.212056    9.942230
     69          8           0       -4.236981   -2.851177    9.976122
     70         19           0       -3.214901   -6.134332    5.647966
     71         19           0       -0.119626    0.036023   12.324542
     72         19           0       -9.283422   -2.821648   12.422721
     73         23           0       -4.679694   -1.543921    8.989942
 ---------------------------------------------------------------------
 Rotational constants (GHZ):           0.0172126           0.0132194           0.0129969
 Standard basis: def2SVP (5D, 7F)
  1217 basis functions,  2313 primitive gaussians,  1337 cartesian basis functions
   321 alpha electrons      321 beta electrons
       nuclear repulsion energy     20976.5430371620 Hartrees.
 NAtoms=   73 NActive=   73 NUniq=   73 SFac= 1.00D+00 NAtFMM=   60 NAOKFM=T Big=T
 Integral buffers will be    131072 words long.
 Raffenetti 2 integral format.
 Two-electron integral symmetry is turned off.
 Nuclear repulsion after empirical dispersion term =    20976.2666681612 Hartrees.
 Force PCM accuracy= 1.00D-10.
 ------------------------------------------------------------------------------
 Polarizable Continuum Model (PCM)
 =================================
 Model                : PCM (using non-symmetric T matrix).
 Atomic radii         : SMD-Coulomb.
 Polarization charges : Total charges.
 Charge compensation  : None.
 Solution method      : On-the-fly selection.
 Cavity type          : VdW (van der Waals Surface) (Alpha=1.000).
 Cavity algorithm     : GePol (No added spheres)
                        Default sphere list used, NSphG=   73.
                        Lebedev-Laikov grids with approx.  5.0 points / Ang**2.
                        Smoothing algorithm: York/Karplus (Gamma=1.0000).
                        Polarization charges: spherical gaussians, with
                                              point-specific exponents (IZeta= 3).
                        Self-potential: point-specific (ISelfS= 7).
                        Self-field    : sphere-specific E.n sum rule (ISelfD= 2).
 1st derivatives      : Analytical E(r).r(x)/FMM algorithm (CHGder, D1EAlg=3).
                        Cavity 1st derivative terms included.
 Solvent              : Acetonitrile, Eps=  35.688000 Eps(inf)=   1.806874
 ------------------------------------------------------------------------------
 ------------------------------------------------------------------------------
 Atomic radii for non-electrostatic terms: SMD-CDS.
 ------------------------------------------------------------------------------
 Nuclear repulsion after PCM non-electrostatic terms =    20976.2609689593 Hartrees.
 One-electron integrals computed using PRISM.
   1 Symmetry operations used in ECPInt.
 ECPInt:  NShTT=  127765 NPrTT=  468030 LenC2=   96513 LenP2D=  220876.
 LDataN:  DoStor=T MaxTD1= 8 Len=  415
 NBasis=  1217 RedAO= T EigKep=  1.38D-04  NBF=  1217
 NBsUse=  1217 1.00D-06 EigRej= -1.00D+00 NBFU=  1217
 Defaulting to unpruned grid for atomic number  74.
 Defaulting to unpruned grid for atomic number  74.
 Defaulting to unpruned grid for atomic number  74.
 Defaulting to unpruned grid for atomic number  74.
 Defaulting to unpruned grid for atomic number  74.
 Defaulting to unpruned grid for atomic number  74.
 Defaulting to unpruned grid for atomic number  74.
 Defaulting to unpruned grid for atomic number  74.
 Initial guess from the checkpoint file:  "a.chk"
 B after Tr=     0.001103   -0.000550    0.000251
         Rot=    1.000000   -0.000015    0.000012    0.000030 Ang=  -0.00 deg.
 Requested convergence on RMS density matrix=1.00D-08 within  64 cycles.
 Requested convergence on MAX density matrix=1.00D-06.
 Requested convergence on             energy=1.00D-06.
 No special actions if energy rises.
 Defaulting to unpruned grid for atomic number  74.
 Defaulting to unpruned grid for atomic number  74.
 Defaulting to unpruned grid for atomic number  74.
 Defaulting to unpruned grid for atomic number  74.
 Defaulting to unpruned grid for atomic number  74.
 Defaulting to unpruned grid for atomic number  74.
 Defaulting to unpruned grid for atomic number  74.
 Defaulting to unpruned grid for atomic number  74.
 Defaulting to unpruned grid for atomic number  74.
 Defaulting to unpruned grid for atomic number  74.
 Defaulting to unpruned grid for atomic number  74.
 Defaulting to unpruned grid for atomic number  74.
 Defaulting to unpruned grid for atomic number  74.
 Defaulting to unpruned grid for atomic number  74.
 Defaulting to unpruned grid for atomic number  74.
 Defaulting to unpruned grid for atomic number  74.
 Defaulting to unpruned grid for atomic number  74.
 Defaulting to unpruned grid for atomic number  74.
 Defaulting to unpruned grid for atomic number  74.
 Defaulting to unpruned grid for atomic number  74.
 Defaulting to unpruned grid for atomic number  74.
 Defaulting to unpruned grid for atomic number  74.
 Defaulting to unpruned grid for atomic number  74.
 Defaulting to unpruned grid for atomic number  74.
 Defaulting to unpruned grid for atomic number  74.
 Defaulting to unpruned grid for atomic number  74.
 Defaulting to unpruned grid for atomic number  74.
 Defaulting to unpruned grid for atomic number  74.
 Defaulting to unpruned grid for atomic number  74.
 Defaulting to unpruned grid for atomic number  74.
 Defaulting to unpruned grid for atomic number  74.
 Defaulting to unpruned grid for atomic number  74.
 Defaulting to unpruned grid for atomic number  74.
 Defaulting to unpruned grid for atomic number  74.
 Defaulting to unpruned grid for atomic number  74.
 Defaulting to unpruned grid for atomic number  74.
 Defaulting to unpruned grid for atomic number  74.
 Defaulting to unpruned grid for atomic number  74.
 Defaulting to unpruned grid for atomic number  74.
 Defaulting to unpruned grid for atomic number  74.
 Defaulting to unpruned grid for atomic number  74.
 Defaulting to unpruned grid for atomic number  74.
 Defaulting to unpruned grid for atomic number  74.
 Defaulting to unpruned grid for atomic number  74.
 Defaulting to unpruned grid for atomic number  74.
 Defaulting to unpruned grid for atomic number  74.
 Defaulting to unpruned grid for atomic number  74.
 Defaulting to unpruned grid for atomic number  74.
 Defaulting to unpruned grid for atomic number  74.
 Defaulting to unpruned grid for atomic number  74.
 Defaulting to unpruned grid for atomic number  74.
 Defaulting to unpruned grid for atomic number  74.
 Defaulting to unpruned grid for atomic number  74.
 Defaulting to unpruned grid for atomic number  74.
 Defaulting to unpruned grid for atomic number  74.
 Defaulting to unpruned grid for atomic number  74.
 Inv3:  Mode=1 IEnd=    87415212.
 Iteration    1 A*A^-1 deviation from unit magnitude is 3.44D-15 for   3488.
 Iteration    1 A*A^-1 deviation from orthogonality  is 2.85D-15 for    895     76.
 Iteration    1 A^-1*A deviation from unit magnitude is 3.66D-15 for   1144.
 Iteration    1 A^-1*A deviation from orthogonality  is 1.26D-08 for   4988   4789.
 Iteration    2 A*A^-1 deviation from unit magnitude is 4.66D-15 for   5252.
 Iteration    2 A*A^-1 deviation from orthogonality  is 4.13D-15 for    920     60.
 Iteration    2 A^-1*A deviation from unit magnitude is 1.33D-15 for   4153.
 Iteration    2 A^-1*A deviation from orthogonality  is 6.11D-16 for   3245   1681.
 Error on total polarization charges =  0.01615
 SCF Done:  E(RwB97XD) =  -7327.70190605     A.U. after   11 cycles
            NFock= 11  Conv=0.42D-08     -V/T= 2.0832
 SMD-CDS (non-electrostatic) energy       (kcal/mol) =      -3.58
 (included in total energy above)
 QCSCF skips out because SCF is already converged.

 **********************************************************************

            Population analysis using the SCF Density.

 **********************************************************************

 Alpha  occ. eigenvalues -- -197.29425-130.00094-130.00068-129.99987-101.48374
 Alpha  occ. eigenvalues --  -22.62551 -19.33622 -19.33616 -19.33612 -19.33590
 Alpha  occ. eigenvalues --  -19.30729 -19.30693 -19.30690 -19.30682 -19.30678
 Alpha  occ. eigenvalues --  -19.30674 -19.30664 -19.30637 -19.30568 -19.30367
 Alpha  occ. eigenvalues --  -19.30347 -19.30176 -19.29321 -19.29318 -19.29298
 Alpha  occ. eigenvalues --  -19.29282 -19.29269 -19.29266 -19.29236 -19.29213
 Alpha  occ. eigenvalues --  -19.29206 -19.29177 -19.29174 -19.29150 -19.29137
 Alpha  occ. eigenvalues --  -19.29100 -19.29097 -19.29093 -19.29092 -19.29066
 Alpha  occ. eigenvalues --  -19.29061 -19.29021 -19.28994 -19.28970 -19.28947
 Alpha  occ. eigenvalues --  -19.28865 -19.11507 -19.11500 -19.11491 -13.37497
 Alpha  occ. eigenvalues --  -13.37470 -13.37384 -10.70427 -10.70420 -10.70419
 Alpha  occ. eigenvalues --  -10.70400 -10.70393 -10.70391 -10.70315 -10.70308
 Alpha  occ. eigenvalues --  -10.70302 -10.29831 -10.29333 -10.29278 -10.29043
 Alpha  occ. eigenvalues --  -10.28948 -10.28938 -10.28064 -10.27458  -9.38850
 Alpha  occ. eigenvalues --   -7.13677  -7.13627  -7.13620  -3.23322  -3.23320
 Alpha  occ. eigenvalues --   -3.23303  -3.23299  -3.23293  -3.23275  -3.23260
 Alpha  occ. eigenvalues --   -3.23258  -3.23229  -3.22978  -3.22960  -3.22782
 Alpha  occ. eigenvalues --   -2.91798  -1.94181  -1.94148  -1.94136  -1.87722
 Alpha  occ. eigenvalues --   -1.87679  -1.87662  -1.87633  -1.87493  -1.87474
 Alpha  occ. eigenvalues --   -1.87469  -1.87453  -1.87431  -1.87277  -1.87248
 Alpha  occ. eigenvalues --   -1.87097  -1.86630  -1.86512  -1.86502  -1.86485
 Alpha  occ. eigenvalues --   -1.86459  -1.86438  -1.86347  -1.86335  -1.86319
 Alpha  occ. eigenvalues --   -1.86300  -1.86293  -1.86265  -1.86150  -1.86138
 Alpha  occ. eigenvalues --   -1.86126  -1.86117  -1.86045  -1.86030  -1.85992
 Alpha  occ. eigenvalues --   -1.85923  -1.85906  -1.85806  -1.85717  -1.85669
 Alpha  occ. eigenvalues --   -1.51188  -1.51161  -1.51081  -1.13055  -1.11283
 Alpha  occ. eigenvalues --   -1.11199  -1.11197  -1.08967  -1.08532  -1.08493
 Alpha  occ. eigenvalues --   -1.08325  -1.07567  -1.07506  -1.07497  -1.06904
 Alpha  occ. eigenvalues --   -1.06895  -1.06876  -1.06328  -1.06307  -1.05323
 Alpha  occ. eigenvalues --   -1.05315  -1.04984  -1.04980  -1.04969  -1.04199
 Alpha  occ. eigenvalues --   -1.04189  -1.04176  -1.04033  -1.04012  -1.04002
 Alpha  occ. eigenvalues --   -1.03944  -1.03922  -1.03900  -1.03767  -1.03745
 Alpha  occ. eigenvalues --   -1.03621  -1.03559  -1.03303  -1.03267  -1.03122
 Alpha  occ. eigenvalues --   -1.03111  -1.03034  -1.02968  -0.94357  -0.86657
 Alpha  occ. eigenvalues --   -0.86635  -0.86558  -0.86481  -0.86463  -0.86462
 Alpha  occ. eigenvalues --   -0.86441  -0.86426  -0.86371  -0.86334  -0.82799
 Alpha  occ. eigenvalues --   -0.79723  -0.71636  -0.69645  -0.67986  -0.64619
 Alpha  occ. eigenvalues --   -0.63994  -0.63915  -0.63901  -0.63314  -0.63296
 Alpha  occ. eigenvalues --   -0.63174  -0.62911  -0.62678  -0.62605  -0.61994
 Alpha  occ. eigenvalues --   -0.61624  -0.61609  -0.61515  -0.61259  -0.61248
 Alpha  occ. eigenvalues --   -0.61183  -0.60420  -0.59486  -0.59463  -0.59453
 Alpha  occ. eigenvalues --   -0.59415  -0.59369  -0.58570  -0.58007  -0.57975
 Alpha  occ. eigenvalues --   -0.57888  -0.57067  -0.57033  -0.57006  -0.56295
 Alpha  occ. eigenvalues --   -0.56276  -0.56122  -0.55705  -0.54864  -0.54813
 Alpha  occ. eigenvalues --   -0.54770  -0.54512  -0.54244  -0.54113  -0.54102
 Alpha  occ. eigenvalues --   -0.54024  -0.53963  -0.53245  -0.53209  -0.53078
 Alpha  occ. eigenvalues --   -0.53043  -0.52906  -0.52714  -0.52680  -0.52644
 Alpha  occ. eigenvalues --   -0.52614  -0.52511  -0.52470  -0.52413  -0.51616
 Alpha  occ. eigenvalues --   -0.51600  -0.51331  -0.51313  -0.51268  -0.51229
 Alpha  occ. eigenvalues --   -0.51176  -0.51163  -0.50928  -0.50773  -0.50599
 Alpha  occ. eigenvalues --   -0.50580  -0.50573  -0.49883  -0.49880  -0.49301
 Alpha  occ. eigenvalues --   -0.49274  -0.49241  -0.49214  -0.49165  -0.49080
 Alpha  occ. eigenvalues --   -0.48898  -0.48078  -0.48030  -0.47922  -0.47655
 Alpha  occ. eigenvalues --   -0.47389  -0.47293  -0.47250  -0.46997  -0.46943
 Alpha  occ. eigenvalues --   -0.46823  -0.46550  -0.46504  -0.46495  -0.46192
 Alpha  occ. eigenvalues --   -0.46143  -0.46105  -0.45590  -0.45105  -0.44923
 Alpha  occ. eigenvalues --   -0.44881  -0.44214  -0.44145  -0.44035  -0.43493
 Alpha  occ. eigenvalues --   -0.43289  -0.43237  -0.43121  -0.43107  -0.43075
 Alpha  occ. eigenvalues --   -0.42712  -0.42690  -0.42664  -0.42594  -0.42585
 Alpha  occ. eigenvalues --   -0.42503  -0.42471  -0.42450  -0.42293  -0.42276
 Alpha  occ. eigenvalues --   -0.42260  -0.42030  -0.41918  -0.41864  -0.41846
 Alpha  occ. eigenvalues --   -0.41174  -0.41168  -0.41128  -0.41027  -0.40551
 Alpha  occ. eigenvalues --   -0.40528  -0.40511  -0.40373  -0.39443  -0.39439
 Alpha  occ. eigenvalues --   -0.36978  -0.32543  -0.29184  -0.25152  -0.25125
 Alpha  occ. eigenvalues --   -0.23530
 Alpha virt. eigenvalues --   -0.09444  -0.09229  -0.08515  -0.08456  -0.07035
 Alpha virt. eigenvalues --   -0.07013  -0.06932  -0.04452  -0.04148  -0.04102
 Alpha virt. eigenvalues --   -0.03719  -0.03490  -0.03442  -0.03239  -0.03139
 Alpha virt. eigenvalues --   -0.03099  -0.03071  -0.02218  -0.02166  -0.02135
 Alpha virt. eigenvalues --   -0.01512  -0.01492  -0.01442  -0.01306  -0.01240
 Alpha virt. eigenvalues --   -0.00101  -0.00079  -0.00021   0.01402   0.01459
 Alpha virt. eigenvalues --    0.01906   0.01931   0.02031   0.02138   0.02171
 Alpha virt. eigenvalues --    0.02179   0.02250   0.02299   0.02770   0.02840
 Alpha virt. eigenvalues --    0.02907   0.02981   0.03015   0.04437   0.04530
 Alpha virt. eigenvalues --    0.06760   0.07279   0.07517   0.07543   0.07796
 Alpha virt. eigenvalues --    0.08018   0.08485   0.08529   0.08794   0.09153
 Alpha virt. eigenvalues --    0.09338   0.09387   0.09665   0.09884   0.10247
 Alpha virt. eigenvalues --    0.10325   0.10366   0.10428   0.10476   0.10638
 Alpha virt. eigenvalues --    0.10896   0.11053   0.11062   0.11640   0.11722
 Alpha virt. eigenvalues --    0.12216   0.13124   0.13234   0.13327   0.13598
 Alpha virt. eigenvalues --    0.13758   0.14464   0.14558   0.14680   0.15003
 Alpha virt. eigenvalues --    0.15554   0.16153   0.16337   0.16578   0.16748
 Alpha virt. eigenvalues --    0.16766   0.16912   0.17079   0.17247   0.17718
 Alpha virt. eigenvalues --    0.17909   0.18160   0.18221   0.18378   0.18577
 Alpha virt. eigenvalues --    0.18745   0.19046   0.19289   0.19403   0.19574
 Alpha virt. eigenvalues --    0.19644   0.20187   0.20283   0.20479   0.20588
 Alpha virt. eigenvalues --    0.20753   0.20880   0.20992   0.21358   0.21416
 Alpha virt. eigenvalues --    0.21525   0.21625   0.21699   0.21871   0.22035
 Alpha virt. eigenvalues --    0.22457   0.22732   0.22909   0.23140   0.23218
 Alpha virt. eigenvalues --    0.23462   0.23778   0.23975   0.24275   0.24579
 Alpha virt. eigenvalues --    0.24753   0.25212   0.25436   0.25672   0.25859
 Alpha virt. eigenvalues --    0.26007   0.26202   0.26429   0.26593   0.26679
 Alpha virt. eigenvalues --    0.26962   0.27233   0.27369   0.27439   0.27749
 Alpha virt. eigenvalues --    0.28034   0.28269   0.28318   0.28631   0.28741
 Alpha virt. eigenvalues --    0.29152   0.29506   0.29896   0.30340   0.30510
 Alpha virt. eigenvalues --    0.30731   0.30922   0.31248   0.31480   0.31824
 Alpha virt. eigenvalues --    0.32303   0.34766   0.35208   0.35772   0.36326
 Alpha virt. eigenvalues --    0.36654   0.36925   0.37279   0.38116   0.38414
 Alpha virt. eigenvalues --    0.38646   0.39186   0.39510   0.39645   0.40238
 Alpha virt. eigenvalues --    0.40708   0.40857   0.40959   0.41126   0.41743
 Alpha virt. eigenvalues --    0.42113   0.42468   0.42793   0.43289   0.43537
 Alpha virt. eigenvalues --    0.43696   0.44490   0.44749   0.44881   0.45255
 Alpha virt. eigenvalues --    0.45774   0.46326   0.46550   0.46679   0.47347
 Alpha virt. eigenvalues --    0.47387   0.47644   0.47850   0.48080   0.48214
 Alpha virt. eigenvalues --    0.48415   0.48452   0.48583   0.48686   0.48967
 Alpha virt. eigenvalues --    0.49159   0.49391   0.49442   0.49798   0.49821
 Alpha virt. eigenvalues --    0.50187   0.50469   0.50634   0.50754   0.50985
 Alpha virt. eigenvalues --    0.51625   0.51715   0.51879   0.52234   0.52423
 Alpha virt. eigenvalues --    0.52663   0.52902   0.53009   0.53151   0.53309
 Alpha virt. eigenvalues --    0.53634   0.54038   0.54261   0.54349   0.54497
 Alpha virt. eigenvalues --    0.54954   0.55399   0.55644   0.56350   0.56438
 Alpha virt. eigenvalues --    0.56818   0.57396   0.57750   0.58029   0.58290
 Alpha virt. eigenvalues --    0.58566   0.59080   0.59454   0.60161   0.60779
 Alpha virt. eigenvalues --    0.61368   0.62304   0.62608   0.62766   0.63228
 Alpha virt. eigenvalues --    0.64160   0.65270   0.65684   0.65721   0.65929
 Alpha virt. eigenvalues --    0.66132   0.66537   0.66996   0.67372   0.67433
 Alpha virt. eigenvalues --    0.67835   0.68327   0.69623   0.70227   0.71105
 Alpha virt. eigenvalues --    0.71404   0.71908   0.72140   0.72219   0.72272
 Alpha virt. eigenvalues --    0.72559   0.72723   0.73253   0.73370   0.73983
 Alpha virt. eigenvalues --    0.74605   0.74836   0.75544   0.75669   0.75880
 Alpha virt. eigenvalues --    0.76170   0.76773   0.76902   0.77176   0.77449
 Alpha virt. eigenvalues --    0.78010   0.78490   0.79076   0.79471   0.79699
 Alpha virt. eigenvalues --    0.80260   0.80523   0.80646   0.80723   0.81473
 Alpha virt. eigenvalues --    0.81517   0.81810   0.82018   0.82506   0.83210
 Alpha virt. eigenvalues --    0.83995   0.84228   0.84745   0.85401   0.85888
 Alpha virt. eigenvalues --    0.87175   0.87516   0.87964   0.88049   0.88699
 Alpha virt. eigenvalues --    0.88912   0.89010   0.89495   0.89631   0.90264
 Alpha virt. eigenvalues --    0.90675   0.90941   0.91227   0.91459   0.91733
 Alpha virt. eigenvalues --    0.92809   0.93049   0.93532   0.93875   0.94085
 Alpha virt. eigenvalues --    0.94186   0.94806   0.95639   0.95872   0.96514
 Alpha virt. eigenvalues --    0.96842   0.97057   0.97266   0.97712   0.97808
 Alpha virt. eigenvalues --    0.98146   0.98281   0.98405   0.98546   0.98787
 Alpha virt. eigenvalues --    0.98913   0.99431   0.99930   1.00366   1.00564
 Alpha virt. eigenvalues --    1.00875   1.01264   1.01544   1.01641   1.01689
 Alpha virt. eigenvalues --    1.02115   1.02235   1.02425   1.02460   1.02654
 Alpha virt. eigenvalues --    1.02900   1.03408   1.03502   1.03638   1.03861
 Alpha virt. eigenvalues --    1.04140   1.04201   1.04361   1.04637   1.04721
 Alpha virt. eigenvalues --    1.04991   1.05096   1.05238   1.05436   1.05798
 Alpha virt. eigenvalues --    1.05933   1.06364   1.06564   1.06994   1.07138
 Alpha virt. eigenvalues --    1.07517   1.07836   1.08622   1.09070   1.09245
 Alpha virt. eigenvalues --    1.09406   1.09838   1.09907   1.10104   1.10234
 Alpha virt. eigenvalues --    1.10749   1.10847   1.10954   1.11015   1.11270
 Alpha virt. eigenvalues --    1.11472   1.11673   1.11744   1.12096   1.12470
 Alpha virt. eigenvalues --    1.12778   1.13440   1.13600   1.14138   1.14830
 Alpha virt. eigenvalues --    1.15271   1.15756   1.16160   1.16258   1.16648
 Alpha virt. eigenvalues --    1.17061   1.17647   1.17848   1.18651   1.18684
 Alpha virt. eigenvalues --    1.19566   1.20588   1.20955   1.21155   1.21302
 Alpha virt. eigenvalues --    1.21477   1.21918   1.22134   1.22964   1.23569
 Alpha virt. eigenvalues --    1.25099   1.26034   1.26476   1.26677   1.27020
 Alpha virt. eigenvalues --    1.27520   1.28178   1.28450   1.28546   1.28622
 Alpha virt. eigenvalues --    1.28828   1.29114   1.29169   1.29394   1.29727
 Alpha virt. eigenvalues --    1.30157   1.30201   1.30388   1.30743   1.30813
 Alpha virt. eigenvalues --    1.31146   1.32180   1.32481   1.32976   1.33204
 Alpha virt. eigenvalues --    1.33279   1.33458   1.33665   1.33893   1.34080
 Alpha virt. eigenvalues --    1.34285   1.34334   1.34551   1.34772   1.34884
 Alpha virt. eigenvalues --    1.34941   1.35201   1.35645   1.35787   1.36109
 Alpha virt. eigenvalues --    1.36175   1.36536   1.36729   1.36823   1.36984
 Alpha virt. eigenvalues --    1.37200   1.37343   1.37540   1.37874   1.37909
 Alpha virt. eigenvalues --    1.38171   1.38489   1.38705   1.38980   1.39126
 Alpha virt. eigenvalues --    1.39364   1.39498   1.39628   1.39786   1.40215
 Alpha virt. eigenvalues --    1.40343   1.40497   1.40563   1.40730   1.40966
 Alpha virt. eigenvalues --    1.41093   1.41232   1.41485   1.41898   1.42044
 Alpha virt. eigenvalues --    1.42562   1.43058   1.43272   1.43415   1.43457
 Alpha virt. eigenvalues --    1.43882   1.44240   1.44536   1.44628   1.45660
 Alpha virt. eigenvalues --    1.46282   1.47115   1.47584   1.47693   1.48062
 Alpha virt. eigenvalues --    1.48234   1.48621   1.49200   1.49603   1.49893
 Alpha virt. eigenvalues --    1.50475   1.51006   1.51323   1.51893   1.53276
 Alpha virt. eigenvalues --    1.53674   1.55378   1.55779   1.55807   1.55996
 Alpha virt. eigenvalues --    1.56169   1.56364   1.56669   1.56746   1.57163
 Alpha virt. eigenvalues --    1.57187   1.58019   1.58268   1.59230   1.59287
 Alpha virt. eigenvalues --    1.59809   1.60225   1.60353   1.60467   1.60548
 Alpha virt. eigenvalues --    1.60695   1.61195   1.61921   1.62206   1.62424
 Alpha virt. eigenvalues --    1.64136   1.64428   1.65109   1.65745   1.66794
 Alpha virt. eigenvalues --    1.67498   1.67934   1.69858   1.70545   1.70878
 Alpha virt. eigenvalues --    1.71290   1.71657   1.72355   1.73312   1.74149
 Alpha virt. eigenvalues --    1.75238   1.75438   1.75545   1.75923   1.76716
 Alpha virt. eigenvalues --    1.76903   1.76967   1.77581   1.77828   1.78724
 Alpha virt. eigenvalues --    1.78845   1.79335   1.79839   1.80485   1.80741
 Alpha virt. eigenvalues --    1.81190   1.81289   1.82094   1.82329   1.82946
 Alpha virt. eigenvalues --    1.83055   1.83266   1.83935   1.84169   1.84525
 Alpha virt. eigenvalues --    1.85183   1.85536   1.85750   1.86101   1.86321
 Alpha virt. eigenvalues --    1.86548   1.87159   1.87419   1.88150   1.88656
 Alpha virt. eigenvalues --    1.89364   1.89934   1.90166   1.90351   1.90388
 Alpha virt. eigenvalues --    1.90811   1.90984   1.91317   1.92339   1.93325
 Alpha virt. eigenvalues --    1.94870   1.95283   1.95446   1.95658   1.96041
 Alpha virt. eigenvalues --    1.98181   1.99280   1.99476   1.99547   2.04209
 Alpha virt. eigenvalues --    2.06292   2.07180   2.08172   2.08546   2.08754
 Alpha virt. eigenvalues --    2.09019   2.09150   2.09516   2.10172   2.10999
 Alpha virt. eigenvalues --    2.11510   2.11974   2.12703   2.14758   2.15668
 Alpha virt. eigenvalues --    2.15988   2.16843   2.17265   2.17445   2.17815
 Alpha virt. eigenvalues --    2.20070   2.20470   2.20541   2.20741   2.20895
 Alpha virt. eigenvalues --    2.21197   2.22220   2.24263   2.25374   2.26071
 Alpha virt. eigenvalues --    2.26406   2.26757   2.27329   2.28469   2.28919
 Alpha virt. eigenvalues --    2.29141   2.29823   2.30378   2.33516   2.35686
 Alpha virt. eigenvalues --    2.36794   2.40168   2.40977   2.41030   2.43614
 Alpha virt. eigenvalues --    2.44294   2.50494   2.51689   2.57265   2.64728
 Alpha virt. eigenvalues --    2.64788   2.64926   2.65486   2.65990   2.66582
 Alpha virt. eigenvalues --    2.66784   2.66832   2.66936   2.66965   2.67053
 Alpha virt. eigenvalues --    2.67091   2.67151   2.67320   2.67350   2.67405
 Alpha virt. eigenvalues --    2.67642   2.67680   2.67803   2.67845   2.67902
 Alpha virt. eigenvalues --    2.68646   2.68910   2.69220   2.69378   2.70008
 Alpha virt. eigenvalues --    2.70181   2.70285   2.70630   2.70702   2.70810
 Alpha virt. eigenvalues --    2.70973   2.71367   2.71428   2.71523   2.71586
 Alpha virt. eigenvalues --    2.71650   2.71909   2.72690   2.72906   2.72968
 Alpha virt. eigenvalues --    2.73090   2.73187   2.73252   2.73330   2.73367
 Alpha virt. eigenvalues --    2.73491   2.73748   2.73872   2.73897   2.73988
 Alpha virt. eigenvalues --    2.74051   2.74141   2.74313   2.74529   2.74694
 Alpha virt. eigenvalues --    2.74758   2.74902   2.75057   2.75583   2.75951
 Alpha virt. eigenvalues --    2.76161   2.76292   2.76446   2.76706   2.76895
 Alpha virt. eigenvalues --    2.77061   2.77179   2.77196   2.78422   2.78567
 Alpha virt. eigenvalues --    2.78633   2.78891   2.79804   2.80068   2.80168
 Alpha virt. eigenvalues --    2.81080   2.81801   2.81812   2.82110   2.82312
 Alpha virt. eigenvalues --    2.82339   2.82725   2.83106   2.83277   2.83661
 Alpha virt. eigenvalues --    2.83773   2.83924   2.83994   2.84237   2.85105
 Alpha virt. eigenvalues --    2.85565   2.86132   2.86223   2.86312   2.86382
 Alpha virt. eigenvalues --    2.86599   2.86781   2.86904   2.88202   2.88502
 Alpha virt. eigenvalues --    2.88677   2.89066   2.89665   2.89726   2.89827
 Alpha virt. eigenvalues --    2.89938   2.89996   2.90092   2.90564   2.90627
 Alpha virt. eigenvalues --    2.90749   2.91744   2.91893   2.92046   2.92074
 Alpha virt. eigenvalues --    2.92279   2.92488   2.92767   2.92918   2.93055
 Alpha virt. eigenvalues --    2.93356   2.93531   2.93654   2.93996   2.94119
 Alpha virt. eigenvalues --    2.94175   2.95010   2.95182   2.95392   2.95732
 Alpha virt. eigenvalues --    2.95821   2.95865   2.96407   2.96591   2.96667
 Alpha virt. eigenvalues --    2.96745   2.96936   2.96970   2.97207   2.97416
 Alpha virt. eigenvalues --    2.97587   2.97721   2.97918   2.98354   2.99140
 Alpha virt. eigenvalues --    2.99344   2.99395   2.99665   2.99744   3.00038
 Alpha virt. eigenvalues --    3.00102   3.00421   3.01051   3.01395   3.01469
 Alpha virt. eigenvalues --    3.02741   3.03175   3.03380   3.03738   3.05159
 Alpha virt. eigenvalues --    3.06520   3.06722   3.07159   3.11059   3.11634
 Alpha virt. eigenvalues --    3.11756   3.11874   3.12214   3.12661   3.13727
 Alpha virt. eigenvalues --    3.13861   3.14016   3.16836   3.19785   3.21724
 Alpha virt. eigenvalues --    3.21854   3.23938   3.32601   3.41130   3.41482
 Alpha virt. eigenvalues --    3.42126   3.43156   3.44880   3.44910   3.45842
 Alpha virt. eigenvalues --    3.46288   3.46360   3.47193   3.47443   3.47811
 Alpha virt. eigenvalues --    3.48305   3.51188   3.51768   3.52306   3.53550
 Alpha virt. eigenvalues --    3.53866   3.54307   3.54644   3.54802   3.55005
 Alpha virt. eigenvalues --    3.55234   3.55349   3.55515   3.56596   3.57448
 Alpha virt. eigenvalues --    3.57660   3.58460   3.59456   3.59602   3.60277
 Alpha virt. eigenvalues --    3.60604   3.61236   3.61529   3.62058   3.62389
 Alpha virt. eigenvalues --    3.69510   3.74797  68.64201  68.65332  68.66321
 Alpha virt. eigenvalues --   68.68413  68.72564  68.73604  68.81648  68.82635
 Alpha virt. eigenvalues --   68.83359  68.85592  68.86776  68.88060 576.22639
 Alpha virt. eigenvalues --  576.23745 576.24713 576.26760 576.30916 576.31944
 Alpha virt. eigenvalues --  576.39839 576.40802 576.41507 576.43646 576.44800
 Alpha virt. eigenvalues --  576.46076
          Condensed to atoms (all electrons):
 Mulliken charges:
               1
     1  Cl  -0.892587
     2  C   -0.080574
     3  C    0.049119
     4  C   -0.079727
     5  C   -0.033726
     6  C   -0.033895
     7  C   -0.049629
     8  H    0.030094
     9  H    0.029075
    10  H    0.040938
    11  H    0.036767
    12  H    0.039789
    13  C   -0.124775
    14  C    0.025178
    15  H    0.020697
    16  H    0.036030
    17  H    0.024661
    18  O   -0.663808
    19  O   -0.663232
    20  O   -0.655327
    21  O   -0.664242
    22  W    1.734713
    23  W    1.677281
    24  W    1.687417
    25  W    1.697640
    26  W    1.677675
    27  W    1.728993
    28  W    1.620204
    29  W    1.688448
    30  O   -0.320247
    31  O   -0.365789
    32  O   -0.367830
    33  O   -0.359982
    34  O   -0.664564
    35  O   -0.671195
    36  O   -0.661655
    37  O   -0.664446
    38  O   -0.367969
    39  O   -0.364953
    40  O   -0.297562
    41  O   -0.365004
    42  O   -0.670613
    43  O   -0.664245
    44  O   -0.660862
    45  O   -0.666040
    46  O   -0.368087
    47  O   -0.320434
    48  O   -0.361701
    49  O   -0.362197
    50  W    1.674815
    51  W    1.681193
    52  W    1.684843
    53  W    1.687077
    54  O   -0.726383
    55  O   -0.708794
    56  O   -0.726409
    57  O   -0.724172
    58  O   -0.706549
    59  O   -0.727508
    60  O   -0.726224
    61  O   -0.721622
    62  O   -0.725678
    63  O   -0.708048
    64  O   -0.725896
    65  O   -0.726855
    66  O   -0.802360
    67  O   -0.801584
    68  O   -0.798781
    69  O   -0.810383
    70  K    0.863508
    71  K    0.862671
    72  K    0.860614
    73  V    1.194705
 Sum of Mulliken charges =  -1.00000
 Mulliken charges with hydrogens summed into heavy atoms:
               1
     1  Cl  -0.892587
     2  C   -0.050480
     3  C    0.049119
     4  C   -0.050652
     5  C    0.007212
     6  C    0.002872
     7  C   -0.009840
    13  C   -0.104078
    14  C    0.085869
    18  O   -0.663808
    19  O   -0.663232
    20  O   -0.655327
    21  O   -0.664242
    22  W    1.734713
    23  W    1.677281
    24  W    1.687417
    25  W    1.697640
    26  W    1.677675
    27  W    1.728993
    28  W    1.620204
    29  W    1.688448
    30  O   -0.320247
    31  O   -0.365789
    32  O   -0.367830
    33  O   -0.359982
    34  O   -0.664564
    35  O   -0.671195
    36  O   -0.661655
    37  O   -0.664446
    38  O   -0.367969
    39  O   -0.364953
    40  O   -0.297562
    41  O   -0.365004
    42  O   -0.670613
    43  O   -0.664245
    44  O   -0.660862
    45  O   -0.666040
    46  O   -0.368087
    47  O   -0.320434
    48  O   -0.361701
    49  O   -0.362197
    50  W    1.674815
    51  W    1.681193
    52  W    1.684843
    53  W    1.687077
    54  O   -0.726383
    55  O   -0.708794
    56  O   -0.726409
    57  O   -0.724172
    58  O   -0.706549
    59  O   -0.727508
    60  O   -0.726224
    61  O   -0.721622
    62  O   -0.725678
    63  O   -0.708048
    64  O   -0.725896
    65  O   -0.726855
    66  O   -0.802360
    67  O   -0.801584
    68  O   -0.798781
    69  O   -0.810383
    70  K    0.863508
    71  K    0.862671
    72  K    0.860614
    73  V    1.194705
 Electronic spatial extent (au):  <R**2>=         317249.5391
 Charge=             -1.0000 electrons
 Dipole moment (field-independent basis, Debye):
    X=             50.1937    Y=            -51.1069    Z=            -38.7873  Tot=             81.4603
 Quadrupole moment (field-independent basis, Debye-Ang):
   XX=          -1040.2851   YY=           -888.5193   ZZ=           -916.3562
   XY=            445.8824   XZ=            449.1533   YZ=           -476.4833
 Traceless Quadrupole moment (field-independent basis, Debye-Ang):
   XX=            -91.8982   YY=             59.8676   ZZ=             32.0306
   XY=            445.8824   XZ=            449.1533   YZ=           -476.4833
 Octapole moment (field-independent basis, Debye-Ang**2):
  XXX=          13185.6410  YYY=          -1076.7846  ZZZ=         -19174.3726  XYY=           6037.8411
  XXY=          -3521.2671  XXZ=          -9271.0268  XZZ=           7240.5938  YZZ=          -4156.1110
  YYZ=          -9041.3824  XYZ=           4711.7211
 Hexadecapole moment (field-independent basis, Debye-Ang**3):
 XXXX=        -155596.2308 YYYY=         -54075.9365 ZZZZ=        -346782.0246 XXXY=          35193.1627
 XXXZ=         120226.4552 YYYX=          20610.0187 YYYZ=         -12872.1945 ZZZX=         126518.5195
 ZZZY=         -35410.8953 XXYY=         -55027.5448 XXZZ=        -106188.1330 YYZZ=         -99840.9869
 XXYZ=         -40895.9442 YYXZ=          61188.0405 ZZXY=          49478.3105
 N-N= 2.097626096896D+04 E-N=-5.903692751507D+04  KE= 6.765157084018D+03
   1 Symmetry operations used in ECPInt.
 ECPInt:  NShTT=  127765 NPrTT=  468030 LenC2=   96513 LenP2D=  220876.
 LDataN:  DoStor=T MaxTD1= 9 Len=  602
 D1PCM: PCM CHGder 1st derivatives, ID1Alg=3 FixD1E=F DoIter=F DoCFld=F I1PDM=0.
 Calling FoFJK, ICntrl=      2127 FMM=T ISym2X=0 I1Cent= 0 IOpClX= 0 NMat=1 NMatS=1 NMatT=0.
 Defaulting to unpruned grid for atomic number  74.
 Defaulting to unpruned grid for atomic number  74.
 Defaulting to unpruned grid for atomic number  74.
 Defaulting to unpruned grid for atomic number  74.
 Defaulting to unpruned grid for atomic number  74.
 Defaulting to unpruned grid for atomic number  74.
 Defaulting to unpruned grid for atomic number  74.
 Defaulting to unpruned grid for atomic number  74.
 Defaulting to unpruned grid for atomic number  74.
 Defaulting to unpruned grid for atomic number  74.
 Defaulting to unpruned grid for atomic number  74.
 Defaulting to unpruned grid for atomic number  74.
 Defaulting to unpruned grid for atomic number  74.
 Defaulting to unpruned grid for atomic number  74.
 Defaulting to unpruned grid for atomic number  74.
 Defaulting to unpruned grid for atomic number  74.
 Defaulting to unpruned grid for atomic number  74.
 Defaulting to unpruned grid for atomic number  74.
 Defaulting to unpruned grid for atomic number  74.
 Defaulting to unpruned grid for atomic number  74.
 Defaulting to unpruned grid for atomic number  74.
 Defaulting to unpruned grid for atomic number  74.
 Defaulting to unpruned grid for atomic number  74.
 Defaulting to unpruned grid for atomic number  74.
 Defaulting to unpruned grid for atomic number  74.
 Defaulting to unpruned grid for atomic number  74.
 Defaulting to unpruned grid for atomic number  74.
 Defaulting to unpruned grid for atomic number  74.
 Defaulting to unpruned grid for atomic number  74.
 Defaulting to unpruned grid for atomic number  74.
 Defaulting to unpruned grid for atomic number  74.
 Defaulting to unpruned grid for atomic number  74.
 Defaulting to unpruned grid for atomic number  74.
 Defaulting to unpruned grid for atomic number  74.
 Defaulting to unpruned grid for atomic number  74.
 Defaulting to unpruned grid for atomic number  74.
 Defaulting to unpruned grid for atomic number  74.
 Defaulting to unpruned grid for atomic number  74.
 Defaulting to unpruned grid for atomic number  74.
 Defaulting to unpruned grid for atomic number  74.
 Defaulting to unpruned grid for atomic number  74.
 Defaulting to unpruned grid for atomic number  74.
 Defaulting to unpruned grid for atomic number  74.
 Defaulting to unpruned grid for atomic number  74.
 Defaulting to unpruned grid for atomic number  74.
 Defaulting to unpruned grid for atomic number  74.
 Defaulting to unpruned grid for atomic number  74.
 Defaulting to unpruned grid for atomic number  74.
 Defaulting to unpruned grid for atomic number  74.
 Defaulting to unpruned grid for atomic number  74.
 Defaulting to unpruned grid for atomic number  74.
 Defaulting to unpruned grid for atomic number  74.
 Defaulting to unpruned grid for atomic number  74.
 Defaulting to unpruned grid for atomic number  74.
 Defaulting to unpruned grid for atomic number  74.
 Defaulting to unpruned grid for atomic number  74.
 -------------------------------------------------------------------
 Center     Atomic                   Forces (Hartrees/Bohr)
 Number     Number              X              Y              Z
 -------------------------------------------------------------------
      1       17          -0.003288318    0.008347033    0.002562259
      2        6          -0.001527301   -0.000668337   -0.001981868
      3        6          -0.000931073   -0.001934725    0.003546888
      4        6           0.001334789    0.001980602    0.000526494
      5        6           0.000897446   -0.000083697    0.001438708
      6        6          -0.000062568   -0.000313227    0.000729846
      7        6          -0.000981872   -0.001339444    0.000560655
      8        1          -0.000171276    0.000188221   -0.000159062
      9        1          -0.000300591   -0.000072504   -0.000028240
     10        1          -0.000116921   -0.000312450    0.000187349
     11        1           0.000172884   -0.000152128    0.000113476
     12        1           0.000147360    0.000049757    0.000105455
     13        6           0.007585363    0.010980276   -0.007470249
     14        6          -0.001533057   -0.017388285   -0.000069137
     15        1          -0.001138061    0.000493982    0.000143064
     16        1           0.000112808    0.000544093    0.000462941
     17        1          -0.001473699    0.000820283   -0.000734861
     18        8          -0.003281212    0.000467749    0.000816125
     19        8           0.003159683   -0.000761734    0.000964156
     20        8           0.002578733   -0.002936051   -0.000535311
     21        8          -0.002320340    0.002261612   -0.000992818
     22       74           0.001689895    0.010365636   -0.009657027
     23       74          -0.002421024   -0.010070990   -0.009841857
     24       74           0.006580351    0.008373466    0.009805575
     25       74          -0.007123872   -0.007244090    0.010062072
     26       74           0.007950318   -0.007419580   -0.010563520
     27       74          -0.008061301    0.008030520   -0.010442035
     28       74          -0.011494861    0.003035923    0.010748745
     29       74           0.010807129   -0.001793861    0.010638492
     30        8          -0.000542412   -0.002771221    0.003291357
     31        8           0.000235830    0.002978270    0.003124930
     32        8          -0.002249321   -0.001949897   -0.003065124
     33        8           0.002312653    0.001909110   -0.003297946
     34        8          -0.001057313   -0.000713931    0.003158193
     35        8           0.001392032    0.000128520    0.003362297
     36        8           0.000703841   -0.001496799   -0.003171280
     37        8          -0.000320012    0.001260079   -0.003306718
     38        8          -0.004373379   -0.001829817   -0.001226675
     39        8           0.004516192    0.001821656   -0.001328542
     40        8           0.002121676   -0.006039195    0.000899988
     41        8          -0.000998265    0.004571407    0.001208782
     42        8          -0.001968493   -0.002658493    0.001380265
     43        8           0.002370179    0.002469566    0.001072866
     44        8          -0.000329866   -0.003581365   -0.000627949
     45        8           0.000887542    0.003288395   -0.001335599
     46        8          -0.002558439    0.002584736    0.003014401
     47        8           0.002767854   -0.002280559    0.003269125
     48        8           0.004062717   -0.000646244   -0.003529040
     49        8          -0.003646830    0.000444822   -0.003272979
     50       74           0.014165385    0.004727502    0.002951626
     51       74          -0.014706507   -0.003841382    0.003334223
     52       74          -0.005642248    0.015638707   -0.003232543
     53       74           0.004713275   -0.014023827   -0.002775305
     54        8          -0.000605337    0.001457718    0.002024676
     55        8           0.000710213   -0.001508577    0.001938572
     56        8           0.001688821   -0.000173128   -0.002124087
     57        8          -0.001313182   -0.000512114   -0.001938297
     58        8           0.000248053   -0.002399103    0.001091351
     59        8           0.000432170    0.002166176    0.001357874
     60        8          -0.001410204   -0.001665899   -0.001444435
     61        8           0.001600589    0.001373074   -0.001396251
     62        8          -0.001179092    0.001932763    0.000721410
     63        8           0.001073475   -0.002470400    0.000457384
     64        8           0.002275376   -0.000184135   -0.000991008
     65        8          -0.002371623   -0.000229135   -0.000792813
     66        8          -0.026379041   -0.004836684    0.016789810
     67        8           0.026664086    0.005613539    0.016754124
     68        8           0.011147966   -0.025372672   -0.016887752
     69        8          -0.010944962    0.024255656   -0.017184950
     70       19           0.000208304   -0.000975274   -0.000655930
     71       19           0.000862575    0.000094406    0.000718700
     72       19          -0.000980724   -0.000370776    0.000586711
     73       23          -0.000372970    0.000366473    0.000140243
 -------------------------------------------------------------------
 Cartesian Forces:  Max     0.026664086 RMS     0.006059976

 GradGradGradGradGradGradGradGradGradGradGradGradGradGradGradGradGradGrad
 Berny optimization.
 Search for a local minimum.
 Step number   1 out of a maximum of    2
 All quantities printed in internal units (Hartrees-Bohrs-Radians)
 Second derivative matrix not updated -- first step.
 ITU=  0
     Eigenvalues ---    0.00000   0.00000   0.00000   0.00010   0.00093
     Eigenvalues ---    0.00095   0.00256   0.00543   0.00641   0.01643
     Eigenvalues ---    0.01949   0.02903   0.02928   0.03210   0.03429
     Eigenvalues ---    0.03451   0.03723   0.03733   0.04159   0.04500
     Eigenvalues ---    0.04604   0.04615   0.04643   0.04843   0.04855
     Eigenvalues ---    0.04993   0.05358   0.05572   0.05601   0.06372
     Eigenvalues ---    0.06411   0.06533   0.06783   0.06862   0.07047
     Eigenvalues ---    0.07303   0.07391   0.07602   0.08366   0.08390
     Eigenvalues ---    0.08721   0.08757   0.08906   0.08946   0.09741
     Eigenvalues ---    0.09965   0.10111   0.10421   0.10468   0.10553
     Eigenvalues ---    0.10824   0.10898   0.11579   0.11677   0.12059
     Eigenvalues ---    0.12094   0.12177   0.12543   0.12556   0.12671
     Eigenvalues ---    0.12707   0.12793   0.12839   0.13098   0.13143
     Eigenvalues ---    0.13825   0.13989   0.14331   0.14554   0.14742
     Eigenvalues ---    0.16902   0.16938   0.17099   0.17153   0.17590
     Eigenvalues ---    0.17685   0.18577   0.19857   0.20009   0.20258
     Eigenvalues ---    0.20911   0.21081   0.21996   0.22069   0.22149
     Eigenvalues ---    0.22602   0.23174   0.23399   0.23975   0.24010
     Eigenvalues ---    0.24627   0.24765   0.24956   0.25606   0.26202
     Eigenvalues ---    0.26349   0.26561   0.27626   0.27716   0.27954
     Eigenvalues ---    0.28331   0.28367   0.28899   0.29642   0.29961
     Eigenvalues ---    0.30552   0.30660   0.30686   0.30754   0.30799
     Eigenvalues ---    0.30988   0.31233   0.31433   0.31587   0.32400
     Eigenvalues ---    0.32576   0.32615   0.32737   0.32917   0.33469
     Eigenvalues ---    0.33565   0.35091   0.35578   0.35891   0.36900
     Eigenvalues ---    0.37501   0.37670   0.37819   0.38338   0.38610
     Eigenvalues ---    0.38928   0.39258   0.40241   0.40300   0.41219
     Eigenvalues ---    0.42299   0.42334   0.43588   0.44224   0.44855
     Eigenvalues ---    0.45397   0.45631   0.45974   0.48007   0.48410
     Eigenvalues ---    0.48604   0.48944   0.49030   0.49707   0.49766
     Eigenvalues ---    0.50100   0.50868   0.51378   0.51997   0.52432
     Eigenvalues ---    0.53175   0.53870   0.56076   0.58639   0.64489
     Eigenvalues ---    0.67520   0.76677   0.81525   0.82745   0.96915
     Eigenvalues ---    0.97266   0.98791   0.99341   1.01696   1.04472
     Eigenvalues ---    1.07376   1.11229   1.11757   1.12291   1.15605
     Eigenvalues ---    1.18919   1.19390   1.20479   1.22204   1.22652
     Eigenvalues ---    1.22832   1.26310   1.26649   1.26860   1.27189
     Eigenvalues ---    1.27670   1.29240   1.29563   1.45198   1.45618
     Eigenvalues ---    1.45740   1.48108   1.51486   1.51853   1.52136
     Eigenvalues ---    1.52747   1.55784   1.55842   1.57221   1.58596
     Eigenvalues ---    1.58716   1.59407   1.61806   1.64395   1.74189
     Eigenvalues ---    1.85181   1.88568   1.92666   1.93495   1.94369
     Eigenvalues ---    2.03356   2.08933   3.28990
 Eigenvalue     1 is   4.44D-16 Eigenvector:
                          Y16       Y14       Y15       Y17       Y13
   1                    0.17433   0.17433   0.17433   0.17433   0.17433
                          Y3        Y9        Y8        Y4        Y2
   1                    0.17433   0.17433   0.17433   0.17433   0.17433
 Eigenvalue     2 is   2.89D-07 Eigenvector:
                          Y16       X16       X11       Y11       Y15
   1                    0.31717  -0.27122   0.26589  -0.24528   0.23647
                          Y14       X14       Y17       Y13       X6
   1                    0.23147  -0.19159   0.18766   0.18637   0.18485
 Eigenvalue     3 is   2.72D-06 Eigenvector:
                          X9        X10       Y12       Y8        X12
   1                    0.33681   0.29397   0.26948   0.25065  -0.25051
                          Y9        X15       Y10       X17       X8
   1                   -0.24410   0.22963  -0.22507  -0.21000  -0.20899
 Quadratic step=3.023D+01 exceeds max=3.000D-01 adjusted using Lamda=-1.303D-02.
 Angle between NR and scaled steps=  38.85 degrees.
 Angle between quadratic step and forces=  65.76 degrees.
 Linear search not attempted -- first point.
 B after Tr=    -0.000481    0.007082    0.001410
         Rot=    1.000000   -0.000138    0.000011    0.000047 Ang=  -0.02 deg.
 Variable       Old X    -DE/DX   Delta X   Delta X   Delta X     New X
                                 (Linear)    (Quad)   (Total)
    X1      -18.22001  -0.00329   0.00000  -0.00323  -0.00271 -18.22272
    Y1       15.62702   0.00835   0.00000   0.00836   0.01165  15.63868
    Z1       19.91793   0.00256   0.00000   0.00267   0.00798  19.92590
    X2      -15.78033  -0.00153   0.00000  -0.00933  -0.00959 -15.78991
    Y2        8.04378  -0.00067   0.00000  -0.01419  -0.01200   8.03179
    Z2       23.07616  -0.00198   0.00000  -0.00873  -0.00547  23.07069
    X3      -17.28227  -0.00093   0.00000   0.00007  -0.00020 -17.28248
    Y3        7.43463  -0.00193   0.00000  -0.02580  -0.02288   7.41175
    Z3       20.96677   0.00355   0.00000  -0.00863  -0.00558  20.96119
    X4      -19.00899   0.00133   0.00000  -0.00990  -0.01037 -19.01935
    Y4        5.42535   0.00198   0.00000  -0.00881  -0.00580   5.41955
    Z4       21.19544   0.00053   0.00000   0.01527   0.01774  21.21318
    X5      -19.28810   0.00090   0.00000  -0.00526  -0.00589 -19.29400
    Y5        4.12711  -0.00008   0.00000  -0.00379  -0.00137   4.12574
    Z5       23.46349   0.00144   0.00000   0.02169   0.02379  23.48728
    X6      -17.82168  -0.00006   0.00000  -0.00176  -0.00238 -17.82406
    Y6        4.78871  -0.00031   0.00000  -0.00393  -0.00223   4.78648
    Z6       25.55368   0.00073   0.00000   0.01717   0.01949  25.57318
    X7      -16.05077  -0.00098   0.00000  -0.00722  -0.00766 -16.05843
    Y7        6.73452  -0.00134   0.00000  -0.00302  -0.00142   6.73310
    Z7       25.34075   0.00056   0.00000   0.00195   0.00485  25.34560
    X8      -14.38243  -0.00017   0.00000  -0.00993  -0.01005 -14.39248
    Y8        9.55742   0.00019   0.00000  -0.01320  -0.01109   9.54633
    Z8       22.94741  -0.00016   0.00000  -0.01523  -0.01152  22.93589
    X9      -20.16161  -0.00030   0.00000  -0.01501  -0.01549 -20.17710
    Y9        4.90602  -0.00007   0.00000  -0.01341  -0.00984   4.89617
    Z9       19.56059  -0.00003   0.00000   0.01948   0.02178  19.58237
   X10      -20.65548  -0.00012   0.00000  -0.00546  -0.00624 -20.66172
   Y10        2.58632  -0.00031   0.00000  -0.00402  -0.00152   2.58480
   Z10       23.60216   0.00019   0.00000   0.02554   0.02719  23.62935
   X11      -18.03718   0.00017   0.00000   0.00619   0.00543 -18.03175
   Y11        3.77226  -0.00015   0.00000  -0.00225  -0.00102   3.77123
   Z11       27.33677   0.00011   0.00000   0.01890   0.02093  27.35771
   X12      -14.87435   0.00015   0.00000  -0.00301  -0.00343 -14.87778
   Y12        7.23922   0.00005   0.00000   0.00592   0.00696   7.24618
   Z12       26.96174   0.00011   0.00000  -0.00301   0.00005  26.96179
   X13      -17.17467   0.00759   0.00000   0.03672   0.03663 -17.13804
   Y13        8.83771   0.01098   0.00000  -0.06413  -0.06055   8.77716
   Z13       18.58568  -0.00747   0.00000  -0.04332  -0.03989  18.54579
   X14      -15.91731  -0.00153   0.00000   0.07387   0.07400 -15.84332
   Y14       11.01898  -0.01739   0.00000  -0.11669  -0.11313  10.90585
   Z14       18.18152  -0.00007   0.00000  -0.06141  -0.05736  18.12416
   X15      -18.28472  -0.00114   0.00000  -0.00443  -0.00455 -18.28927
   Y15        8.02976   0.00049   0.00000  -0.04117  -0.03707   7.99268
   Z15       17.03536   0.00014   0.00000  -0.02501  -0.02182  17.01354
   X16      -15.96155   0.00011   0.00000   0.06498   0.06523 -15.89632
   Y16       11.92717   0.00054   0.00000  -0.09755  -0.09347  11.83370
   Z16       16.33160   0.00046   0.00000  -0.05113  -0.04682  16.28478
   X17      -14.72582  -0.00147   0.00000   0.04007   0.04024 -14.68558
   Y17       11.89936   0.00082   0.00000  -0.08669  -0.08363  11.81574
   Z17       19.61132  -0.00073   0.00000  -0.05303  -0.04870  19.56261
   X18       -1.84298  -0.00328   0.00000  -0.01907  -0.02020  -1.86318
   Y18       -3.41182   0.00047   0.00000   0.00231   0.00567  -3.40615
   Z18       14.10430   0.00082   0.00000   0.00779   0.00822  14.11252
   X19      -15.84621   0.00316   0.00000   0.01327   0.01223 -15.83398
   Y19       -2.51580  -0.00076   0.00000   0.00893   0.01360  -2.50220
   Z19       14.10136   0.00096   0.00000   0.01117   0.01152  14.11288
   X20      -13.25940   0.00258   0.00000   0.01010   0.00940 -13.24999
   Y20        2.54164  -0.00294   0.00000  -0.01105  -0.00819   2.53345
   Z20       19.79587  -0.00054   0.00000  -0.00230  -0.00050  19.79537
   X21       -4.41162  -0.00232   0.00000  -0.00988  -0.01160  -4.42322
   Y21       -8.31166   0.00226   0.00000   0.01723   0.01923  -8.29243
   Z21       19.94630  -0.00099   0.00000  -0.01091  -0.01189  19.93441
   X22       -6.41792   0.00169   0.00000  -0.00730  -0.00794  -6.42587
   Y22        1.31279   0.01037   0.00000   0.02035   0.02466   1.33745
   Z22       12.25016  -0.00966   0.00000  -0.00496  -0.00333  12.24682
   X23      -11.31753  -0.00242   0.00000   0.00353   0.00209 -11.31545
   Y23       -7.22702  -0.01007   0.00000  -0.00442   0.00030  -7.22672
   Z23       12.39533  -0.00984   0.00000  -0.00510  -0.00594  12.38939
   X24       -6.81305   0.00658   0.00000   0.01497   0.01415  -6.79891
   Y24        1.64464   0.00837   0.00000   0.00270   0.00447   1.64911
   Z24       21.56677   0.00981   0.00000   0.00959   0.01130  21.57807
   X25      -10.88959  -0.00712   0.00000  -0.01620  -0.01787 -10.90746
   Y25       -7.31308  -0.00724   0.00000   0.00334   0.00546  -7.30762
   Z25       21.69725   0.01006   0.00000   0.00549   0.00463  21.70188
   X26       -4.59505   0.00795   0.00000  -0.00553  -0.00674  -4.60179
   Y26       -4.89632  -0.00742   0.00000  -0.00560  -0.00142  -4.89774
   Z26       12.09192  -0.01056   0.00000  -0.00823  -0.00828  12.08364
   X27      -13.09747  -0.00806   0.00000  -0.00230  -0.00315 -13.10062
   Y27       -1.01403   0.00803   0.00000   0.02042   0.02541  -0.98862
   Z27       12.03045  -0.01044   0.00000  -0.00646  -0.00563  12.02482
   X28      -12.86869  -0.01149   0.00000  -0.00840  -0.00943 -12.87813
   Y28       -0.47862   0.00304   0.00000  -0.00417  -0.00191  -0.48054
   Z28       21.85561   0.01075   0.00000   0.01074   0.01172  21.86733
   X29       -4.81000   0.01081   0.00000   0.00766   0.00619  -4.80381
   Y29       -5.18072  -0.00179   0.00000   0.01026   0.01174  -5.16898
   Z29       21.93237   0.01064   0.00000   0.00670   0.00657  21.93894
   X30       -5.97335  -0.00054   0.00000   0.01020   0.00982  -5.96353
   Y30        3.55085  -0.00277   0.00000   0.01251   0.01738   3.56823
   Z30       10.02139   0.00329   0.00000   0.00219   0.00445  10.02584
   X31      -11.57157   0.00024   0.00000  -0.01043  -0.01204 -11.58361
   Y31       -9.58941   0.00298   0.00000   0.00227   0.00762  -9.58180
   Z31       10.23665   0.00312   0.00000   0.00050  -0.00099  10.23565
   X32       -5.05839  -0.00225   0.00000   0.00276   0.00203  -5.05636
   Y32        3.23021  -0.00195   0.00000   0.00821   0.00922   3.23943
   Z32       23.74002  -0.00307   0.00000   0.00409   0.00628  23.74630
   X33      -12.62552   0.00231   0.00000  -0.00342  -0.00528 -12.63080
   Y33       -8.82902   0.00191   0.00000  -0.00408  -0.00242  -8.83144
   Z33       23.93056  -0.00330   0.00000  -0.00090  -0.00222  23.92835
   X34       -5.02665  -0.00106   0.00000  -0.01356  -0.01444  -5.04109
   Y34       -1.73149  -0.00071   0.00000   0.00344   0.00808  -1.72341
   Z34       10.56138   0.00316   0.00000   0.01107   0.01189  10.57327
   X35      -12.65840   0.00139   0.00000   0.00817   0.00705 -12.65136
   Y35       -4.29132   0.00013   0.00000   0.01031   0.01564  -4.27567
   Z35       10.62085   0.00336   0.00000   0.01342   0.01335  10.63420
   X36      -10.01503   0.00070   0.00000   0.00655   0.00562 -10.00941
   Y36        1.03614  -0.00150   0.00000  -0.01123  -0.00965   1.02649
   Z36       23.35443  -0.00317   0.00000  -0.00604  -0.00457  23.34985
   X37       -7.65434  -0.00032   0.00000  -0.00565  -0.00729  -7.66164
   Y37       -6.68370   0.00126   0.00000   0.01370   0.01504  -6.66866
   Z37       23.44874  -0.00331   0.00000  -0.01147  -0.01207  23.43666
   X38        0.60409  -0.00437   0.00000   0.00368   0.00279   0.60688
   Y38       -0.05126  -0.00183   0.00000  -0.00433  -0.00214  -0.05340
   Z38       17.52974  -0.00123   0.00000  -0.00177  -0.00037  17.52938
   X39      -18.31207   0.00452   0.00000  -0.00719  -0.00861 -18.32068
   Y39       -5.74337   0.00182   0.00000   0.01309   0.01703  -5.72634
   Z39       17.61801  -0.00133   0.00000  -0.00099  -0.00158  17.61643
   X40      -11.99607   0.00212   0.00000   0.00236   0.00211 -11.99397
   Y40        6.47604  -0.00604   0.00000   0.00616   0.00984   6.48588
   Z40       16.37557   0.00090   0.00000   0.00917   0.01210  16.38767
   X41       -5.68525  -0.00100   0.00000   0.00365   0.00164  -5.68361
   Y41      -12.27459   0.00457   0.00000   0.00482   0.00787 -12.26671
   Z41       16.52414   0.00121   0.00000   0.00042  -0.00168  16.52246
   X42       -3.35272  -0.00197   0.00000  -0.01306  -0.01374  -3.36646
   Y42        1.40154  -0.00266   0.00000  -0.00178   0.00172   1.40326
   Z42       14.12280   0.00138   0.00000   0.01181   0.01353  14.13633
   X43      -14.35574   0.00237   0.00000   0.00996   0.00847 -14.34727
   Y43       -7.33801   0.00247   0.00000   0.01300   0.01749  -7.32052
   Z43       14.25179   0.00107   0.00000   0.01048   0.00954  14.26133
   X44       -8.47864  -0.00033   0.00000   0.00462   0.00407  -8.47457
   Y44        4.14714  -0.00358   0.00000  -0.01239  -0.00995   4.13720
   Z44       19.70037  -0.00063   0.00000  -0.00207   0.00028  19.70065
   X45       -9.20695   0.00089   0.00000  -0.00572  -0.00758  -9.21452
   Y45       -9.89404   0.00329   0.00000   0.01847   0.02093  -9.87310
   Z45       19.89834  -0.00134   0.00000  -0.01131  -0.01283  19.88551
   X46       -3.02780  -0.00256   0.00000  -0.00454  -0.00588  -3.03368
   Y46       -6.67011   0.00258   0.00000   0.00791   0.01254  -6.65757
   Z46        9.91959   0.00301   0.00000  -0.00640  -0.00690   9.91269
   X47      -14.75320   0.00277   0.00000  -0.00669  -0.00735 -14.76055
   Y47        0.51622  -0.00228   0.00000   0.00410   0.00987   0.52609
   Z47        9.77330   0.00327   0.00000  -0.00163  -0.00042   9.77288
   X48      -15.17287   0.00406   0.00000   0.00118   0.00012 -15.17275
   Y48       -0.30821  -0.00065   0.00000   0.00470   0.00655  -0.30166
   Z48       24.08339  -0.00353   0.00000   0.00668   0.00766  24.09104
   X49       -2.48038  -0.00365   0.00000  -0.00160  -0.00314  -2.48352
   Y49       -5.41023   0.00044   0.00000  -0.00162  -0.00096  -5.41119
   Z49       24.12969  -0.00327   0.00000   0.00270   0.00256  24.13226
   X50       -2.34333   0.01417   0.00000   0.00564   0.00468  -2.33865
   Y50       -1.02617   0.00473   0.00000   0.00609   0.00878  -1.01739
   Z50       16.70330   0.00295   0.00000   0.01198   0.01305  16.71635
   X51      -15.36348  -0.01471   0.00000  -0.01003  -0.01134 -15.37482
   Y51       -4.79441  -0.00384   0.00000   0.00481   0.00870  -4.78571
   Z51       16.76855   0.00333   0.00000   0.01334   0.01307  16.78162
   X52      -11.09660  -0.00564   0.00000  -0.00174  -0.00228 -11.09888
   Y52        3.50561   0.01564   0.00000   0.01362   0.01703   3.52264
   Z52       17.09034  -0.00323   0.00000  -0.00648  -0.00436  17.08598
   X53       -6.60046   0.00471   0.00000  -0.00112  -0.00287  -6.60333
   Y53       -9.29953  -0.01402   0.00000  -0.00227   0.00066  -9.29887
   Z53       17.31566  -0.00278   0.00000  -0.01286  -0.01416  17.30149
   X54       -7.96063  -0.00061   0.00000  -0.00251  -0.00380  -7.96444
   Y54       -5.88901   0.00146   0.00000  -0.00465   0.00002  -5.88899
   Z54       11.47572   0.00202   0.00000  -0.00840  -0.00880  11.46692
   X55       -9.72291   0.00071   0.00000  -0.00423  -0.00498  -9.72790
   Y55       -0.11744  -0.00151   0.00000   0.02124   0.02610  -0.09134
   Z55       11.37359   0.00194   0.00000  -0.00704  -0.00588  11.36770
   X56      -11.65265   0.00169   0.00000  -0.01138  -0.01273 -11.66538
   Y56       -3.78458  -0.00017   0.00000  -0.00265  -0.00068  -3.78527
   Z56       22.51088  -0.00212   0.00000   0.00922   0.00932  22.52019
   X57       -5.99015  -0.00131   0.00000   0.01142   0.01025  -5.97990
   Y57       -1.87604  -0.00051   0.00000   0.00708   0.00851  -1.86752
   Z57       22.51818  -0.00194   0.00000   0.00991   0.01067  22.52885
   X58       -8.21557   0.00025   0.00000  -0.00416  -0.00470  -8.22026
   Y58        2.98408  -0.00240   0.00000   0.01658   0.02035   3.00442
   Z58       14.80869   0.00109   0.00000  -0.00486  -0.00282  14.80588
   X59       -9.46547   0.00043   0.00000   0.00193   0.00028  -9.46520
   Y59       -8.85770   0.00217   0.00000  -0.00484  -0.00100  -8.85870
   Z59       14.97534   0.00136   0.00000  -0.00790  -0.00915  14.96620
   X60       -4.37235  -0.00141   0.00000   0.01239   0.01158  -4.36077
   Y60        1.06161  -0.00167   0.00000   0.00490   0.00714   1.06875
   Z60       19.03995  -0.00144   0.00000   0.00981   0.01142  19.05137
   X61      -13.31165   0.00160   0.00000  -0.01501  -0.01657 -13.32821
   Y61       -6.83456   0.00137   0.00000   0.00330   0.00635  -6.82821
   Z61       19.14423  -0.00140   0.00000   0.00794   0.00716  19.15139
   X62       -4.85928  -0.00118   0.00000  -0.00252  -0.00403  -4.86332
   Y62       -7.39091   0.00193   0.00000  -0.00285   0.00059  -7.39032
   Z62       14.86663   0.00072   0.00000  -0.01103  -0.01177  14.85487
   X63      -12.85814   0.00107   0.00000  -0.00206  -0.00274 -12.86088
   Y63        1.49727  -0.00247   0.00000   0.01487   0.01909   1.51637
   Z63       14.74430   0.00046   0.00000  -0.00714  -0.00560  14.73869
   X64      -14.77607   0.00228   0.00000  -0.00878  -0.00991 -14.78598
   Y64       -2.22766  -0.00018   0.00000   0.00170   0.00487  -2.22279
   Z64       19.16779  -0.00099   0.00000   0.01189   0.01234  19.18013
   X65       -2.92973  -0.00237   0.00000   0.00558   0.00433  -2.92540
   Y65       -3.54734  -0.00023   0.00000   0.00641   0.00848  -3.53886
   Z65       19.16420  -0.00079   0.00000   0.00901   0.00937  19.17357
   X66       -6.33381  -0.02638   0.00000  -0.04967  -0.05071  -6.38452
   Y66       -2.19563  -0.00484   0.00000  -0.00075   0.00275  -2.19288
   Z66       15.14255   0.01679   0.00000   0.02775   0.02840  15.17095
   X67      -11.36104   0.02666   0.00000   0.04398   0.04280 -11.31823
   Y67       -3.71045   0.00561   0.00000   0.01578   0.01973  -3.69073
   Z67       15.18175   0.01675   0.00000   0.02903   0.02916  15.21091
   X68       -9.65605   0.01115   0.00000   0.02061   0.01965  -9.63639
   Y68       -0.40073  -0.02537   0.00000  -0.03845  -0.03564  -0.43637
   Z68       18.78809  -0.01689   0.00000  -0.02599  -0.02492  18.76317
   X69       -8.00673  -0.01094   0.00000  -0.02300  -0.02441  -8.03114
   Y69       -5.38794   0.02426   0.00000   0.04598   0.04862  -5.33932
   Z69       18.85214  -0.01718   0.00000  -0.02857  -0.02882  18.82332
   X70       -6.07528   0.00021   0.00000  -0.00151  -0.00332  -6.07860
   Y70      -11.59221  -0.00098   0.00000  -0.00464   0.00007 -11.59214
   Z70       10.67311  -0.00066   0.00000  -0.00978  -0.01171  10.66140
   X71       -0.22606   0.00086   0.00000   0.01137   0.01036  -0.21570
   Y71        0.06807   0.00009   0.00000   0.00358   0.00426   0.07233
   Z71       23.29001   0.00072   0.00000   0.00937   0.01079  23.30080
   X72      -17.54313  -0.00098   0.00000  -0.01287  -0.01439 -17.55752
   Y72       -5.33214  -0.00037   0.00000   0.00154   0.00378  -5.32836
   Z72       23.47554   0.00059   0.00000   0.00945   0.00899  23.48453
   X73       -8.84334  -0.00037   0.00000  -0.00247  -0.00361  -8.84695
   Y73       -2.91759   0.00037   0.00000   0.00588   0.00911  -2.90848
   Z73       16.98853   0.00014   0.00000   0.00079   0.00119  16.98972
         Item               Value     Threshold  Converged?
 Maximum Force            0.026664     0.000450     NO 
 RMS     Force            0.006060     0.000300     NO 
 Maximum Displacement     0.113126     0.001800     NO 
 RMS     Displacement     0.020143     0.001200     NO 
 Predicted change in Energy=-6.052398D-03
 GradGradGradGradGradGradGradGradGradGradGradGradGradGradGradGradGradGrad

 Unable to Open any file for archive entry.
 1\1\GINC-X11P1N2\Force\RwB97XD\def2SVP\C8H8Cl1K3O40V1W12(1-)\MAYUMIAO\
 02-Jun-2024\0\\# def2svp wb97xd scrf=(smd,solvent=acetonitrile) g09def
 ault scf=(xqc,maxcycle=64) force guess=read nosymm\\Title Card\\-1,1\C
 l,-9.64161441,8.26946357,10.54011355\C,-8.35058854,4.25658699,12.21137
 871\C,-9.14538589,3.93423831,11.09513685\C,-10.05912354,2.87097197,11.
 21614435\C,-10.20682453,2.18397285,12.41634242\C,-9.43082572,2.5340749
 7,13.52242625\C,-8.49370229,3.56375327,13.40974671\H,-7.61085648,5.057
 56965,12.14324527\H,-10.66906689,2.59615191,10.35101837\H,-10.93040665
 ,1.36862192,12.48972347\H,-9.54486398,1.99619257,14.46599739\H,-7.8711
 6706,3.83082894,14.26753899\C,-9.08844554,4.67671567,9.83511791\C,-8.4
 2307991,5.83099082,9.62124659\H,-9.67585614,4.24916346,9.01472438\H,-8
 .44648716,6.31158815,8.64231084\H,-7.79256824,6.29687214,10.37786135\O
 ,-0.97526356,-1.80545676,7.4636753\O,-8.38545152,-1.33130179,7.4621187
 7\O,-7.01657042,1.34497893,10.47552214\O,-2.33452768,-4.39834167,10.55
 51276\W,-3.3962188,0.69470113,6.48250307\W,-5.9889806,-3.82437612,6.55
 932599\W,-3.60531238,0.8703066,11.4126415\W,-5.76252493,-3.86991589,11
 .48169061\W,-2.43159425,-2.59102218,6.39876966\W,-6.93088034,-0.536600
 67,6.36624081\W,-6.80981956,-0.25327542,11.56548866\W,-2.54534027,-2.7
 4152144,11.6061116\O,-3.16095915,1.8790292,5.30309309\O,-6.12341015,-5
 .07449905,5.41699982\O,-2.67678713,1.70935574,12.56267914\O,-6.6811384
 ,-4.67211767,12.66350921\O,-2.65998848,-0.91626681,5.58884297\O,-6.698
 53892,-2.27086673,5.62031023\O,-5.29972823,0.54830161,12.35862953\O,-4
 .0505035,-3.53686194,12.40853701\O,0.31967177,-0.02712601,9.27634086\O
 ,-9.69032996,-3.03926187,9.32304947\O,-6.34804847,3.42697306,8.6655803
 4\O,-3.00850525,-6.4954311,8.74420042\O,-1.77418299,0.74166275,7.47346
 23\O,-7.59672866,-3.88310831,7.54172237\O,-4.48670301,2.19457441,10.42
 498556\O,-4.87210701,-5.23569913,10.52974768\O,-1.60224281,-3.52967102
 ,5.24921904\O,-7.80705752,0.27317365,5.17180696\O,-8.0291347,-0.163097
 52,12.74437893\O,-1.31255925,-2.86296879,12.76888446\W,-1.24003617,-0.
 54302559,8.83900309\W,-8.130001,-2.53709241,8.87353368\W,-5.8720675,1.
 85508783,9.04381749\W,-3.49281348,-4.92109941,9.16305019\O,-4.21258651
 ,-3.11633027,6.07268992\O,-5.14514422,-0.06214495,6.0186423\O,-6.16631
 856,-2.00271578,11.91224361\O,-3.1698519,-0.99275654,11.91610575\O,-4.
 34748977,1.57910483,7.8364222\O,-5.00891232,-4.68729537,7.92461066\O,-
 2.3137472,0.56178176,10.07550921\O,-7.04421956,-3.61669108,10.13068773
 \O,-2.57142226,-3.91110345,7.86708316\O,-6.80423281,0.79232366,7.80234
 553\O,-7.81916053,-1.17882941,10.14315514\O,-1.55034803,-1.87717037,10
 .14125905\O,-3.35170883,-1.16187989,8.01309143\O,-6.01200296,-1.963487
 72,8.03383655\O,-5.10976045,-0.21205647,9.9422302\O,-4.23698136,-2.851
 17652,9.97612216\K,-3.21490109,-6.13433179,5.64796582\K,-0.11962637,0.
 03602295,12.32454162\K,-9.28342197,-2.8216481,12.42272056\V,-4.6796942
 8,-1.5439213,8.98994248\\Version=ES64L-G16RevC.01\HF=-7327.7019061\RMS
 D=4.209e-09\RMSF=6.060e-03\Dipole=9.9984963,-21.8928472,2.4315717\Quad
 rupole=-68.3240872,44.5100861,23.8140011,331.5026507,333.9344645,-354.
 2536514\PG=C01 [X(C8H8Cl1K3O40V1W12)]\\@
 The archive entry for this job was punched.


 WE SHOULD BE CAREFUL TO GET OUT OF AN EXPERIENCE ONLY THE WISDOM
 THAT IS IN IT -- AND STOP THERE;
 LEST WE BE LIKE THE CAT THAT SITS DOWN ON A HOT STOVE-LID.
 SHE WILL NEVER SIT DOWN ON A HOT STOVE LID AGAIN;
 BUT ALSO SHE WILL NEVER SIT DOWN ON A COLD ONE ANY MORE.

                                                     -- MARK TWAIN
 Job cpu time:       0 days  9 hours  6 minutes 23.4 seconds.
 Elapsed time:       0 days  0 hours 10 minutes 20.6 seconds.
 File lengths (MBytes):  RWF=   1257 Int=      0 D2E=      0 Chk=    249 Scr=      1
 Normal termination of Gaussian 16 at Sun Jun  2 21:52:03 2024.
