 Entering Gaussian System, Link 0=g16
 Input=JOBS/58_A.gjf
 Output=JOBS/58_A.log
 Initial command:
 /data/app/gaussian/C01-avx2//g16/l1.exe "/tmp/Gau-691074.inp" -scrdir="/tmp/"
 Entering Link 1 = /data/app/gaussian/C01-avx2//g16/l1.exe PID=    691075.
  
 Copyright (c) 1988-2019, Gaussian, Inc.  All Rights Reserved.
  
 This is part of the Gaussian(R) 16 program.  It is based on
 the Gaussian(R) 09 system (copyright 2009, Gaussian, Inc.),
 the Gaussian(R) 03 system (copyright 2003, Gaussian, Inc.),
 the Gaussian(R) 98 system (copyright 1998, Gaussian, Inc.),
 the Gaussian(R) 94 system (copyright 1995, Gaussian, Inc.),
 the Gaussian 92(TM) system (copyright 1992, Gaussian, Inc.),
 the Gaussian 90(TM) system (copyright 1990, Gaussian, Inc.),
 the Gaussian 88(TM) system (copyright 1988, Gaussian, Inc.),
 the Gaussian 86(TM) system (copyright 1986, Carnegie Mellon
 University), and the Gaussian 82(TM) system (copyright 1983,
 Carnegie Mellon University). Gaussian is a federally registered
 trademark of Gaussian, Inc.
  
 This software contains proprietary and confidential information,
 including trade secrets, belonging to Gaussian, Inc.
  
 This software is provided under written license and may be
 used, copied, transmitted, or stored only in accord with that
 written license.
  
 The following legend is applicable only to US Government
 contracts under FAR:
  
                    RESTRICTED RIGHTS LEGEND
  
 Use, reproduction and disclosure by the US Government is
 subject to restrictions as set forth in subparagraphs (a)
 and (c) of the Commercial Computer Software - Restricted
 Rights clause in FAR 52.227-19.
  
 Gaussian, Inc.
 340 Quinnipiac St., Bldg. 40, Wallingford CT 06492
  
  
 ---------------------------------------------------------------
 Warning -- This program may not be used in any manner that
 competes with the business of Gaussian, Inc. or will provide
 assistance to any competitor of Gaussian, Inc.  The licensee
 of this program is prohibited from giving any competitor of
 Gaussian, Inc. access to this program.  By using this program,
 the user acknowledges that Gaussian, Inc. is engaged in the
 business of creating and licensing software in the field of
 computational chemistry and represents and warrants to the
 licensee that it is not a competitor of Gaussian, Inc. and that
 it will not use this program in any manner prohibited above.
 ---------------------------------------------------------------
  

 Cite this work as:
 Gaussian 16, Revision C.01,
 M. J. Frisch, G. W. Trucks, H. B. Schlegel, G. E. Scuseria, 
 M. A. Robb, J. R. Cheeseman, G. Scalmani, V. Barone, 
 G. A. Petersson, H. Nakatsuji, X. Li, M. Caricato, A. V. Marenich, 
 J. Bloino, B. G. Janesko, R. Gomperts, B. Mennucci, H. P. Hratchian, 
 J. V. Ortiz, A. F. Izmaylov, J. L. Sonnenberg, D. Williams-Young, 
 F. Ding, F. Lipparini, F. Egidi, J. Goings, B. Peng, A. Petrone, 
 T. Henderson, D. Ranasinghe, V. G. Zakrzewski, J. Gao, N. Rega, 
 G. Zheng, W. Liang, M. Hada, M. Ehara, K. Toyota, R. Fukuda, 
 J. Hasegawa, M. Ishida, T. Nakajima, Y. Honda, O. Kitao, H. Nakai, 
 T. Vreven, K. Throssell, J. A. Montgomery, Jr., J. E. Peralta, 
 F. Ogliaro, M. J. Bearpark, J. J. Heyd, E. N. Brothers, K. N. Kudin, 
 V. N. Staroverov, T. A. Keith, R. Kobayashi, J. Normand, 
 K. Raghavachari, A. P. Rendell, J. C. Burant, S. S. Iyengar, 
 J. Tomasi, M. Cossi, J. M. Millam, M. Klene, C. Adamo, R. Cammi, 
 J. W. Ochterski, R. L. Martin, K. Morokuma, O. Farkas, 
 J. B. Foresman, and D. J. Fox, Gaussian, Inc., Wallingford CT, 2019.
 
 ******************************************
 Gaussian 16:  ES64L-G16RevC.01  3-Jul-2019
                 2-Jun-2024 
 ******************************************
 %chk=a.chk
 %nprocshared=56
 Will use up to   56 processors via shared memory.
 %mem=96gb
 ----------------------------------------------------------------------
 # def2svp wb97xd scrf=(smd,solvent=acetonitrile) g09default scf=(xqc,m
 axcycle=64) force guess=read nosymm
 ----------------------------------------------------------------------
 1/10=7,30=1,38=1,158=3,167=1/1,3;
 2/12=2,15=1,17=6,18=5,40=1/2;
 3/5=43,7=101,11=2,25=1,27=10,30=1,70=32201,71=1,72=2,74=-58,75=-4,116=-2,158=3/1,2,3;
 4/5=1,60=-1/1;
 5/5=2,7=64,8=3,13=1,38=6,53=2,87=10/2,8;
 6/7=2,8=2,9=2,10=2,28=1,87=10/1;
 7/29=1,30=1,87=10/1,2,3,16;
 1/10=7,30=1,158=3,167=1/3;
 99//99;
 Using 2006 physical constants.
 ----------
 Title Card
 ----------
 Symbolic Z-matrix:
 Charge = -1 Multiplicity = 1
 17                   -9.64117   8.26865   10.53899 
 6                    -8.35239   4.25845   12.21051 
 6                    -9.14723   3.9352    11.09461 
 6                    -10.06117   2.87226   11.2164 
 6                    -10.20702   2.18457   12.41651 
 6                    -9.42898   2.5336    13.52137 
 6                    -8.49351   3.56478   13.40869 
 1                    -7.61465   5.06124   12.14288 
 1                    -10.67309   2.59877   10.35227 
 1                    -10.93139   1.36997   12.4908 
 1                    -9.54032   1.99405   14.46435 
 1                    -7.87123   3.83303   14.2662 
 6                    -9.0913    4.67805   9.8348 
 6                    -8.42514   5.83203   9.62214 
 1                    -9.68028   4.25184   9.0148 
 1                    -8.45069   6.31633   8.64517 
 1                    -7.79204   6.2943    10.37882 
 8                    -0.97531  -1.8064    7.46309 
 8                    -8.38448  -1.33087   7.46216 
 8                    -7.01581   1.34434   10.4762 
 8                    -2.33445  -4.39835   10.55514 
 74                   -3.39502   0.69595   6.48386 
 74                   -5.98912  -3.82559   6.55983 
 74                   -3.60404   0.87082   11.41154 
 74                   -5.763    -3.87124   11.48132 
 74                   -2.43239  -2.59055   6.39768 
 74                   -6.92924  -0.5372    6.36511 
 74                   -6.8083   -0.25406   11.56681 
 74                   -2.54594  -2.74189   11.60705 
 8                    -3.15951   1.88097   5.30537 
 8                    -6.12388  -5.0756    5.41736 
 8                    -2.67561   1.70974   12.56184 
 8                    -6.68116  -4.67395   12.66292 
 8                    -2.6604   -0.91593   5.58878 
 8                    -6.69811  -2.27145   5.62033 
 8                    -5.29814   0.54782   12.35855 
 8                    -4.05077  -3.53748   12.40865 
 8                     0.32117  -0.02941   9.27583 
 8                    -9.69025  -3.03813   9.32236 
 8                    -6.34924   3.42618   8.66597 
 8                    -3.00745  -6.49559   8.74433 
 8                    -1.77312   0.74088   7.47371 
 8                    -7.5967   -3.88308   7.54201 
 8                    -4.48606   2.19448   10.42476 
 8                    -4.87186  -5.23613   10.52941 
 8                    -1.60294  -3.52863   5.24745 
 8                    -7.80537   0.27203   5.17029 
 8                    -8.027    -0.16252   12.7461 
 8                    -1.3139   -2.86355   12.7705 
 74                   -1.23887  -0.545     8.83917 
 74                   -8.12994  -2.53619   8.87351 
 74                   -5.87292   1.8544    9.04402 
 74                   -3.49198  -4.92111   9.16281 
 8                    -4.21298  -3.11695   6.07233 
 8                    -5.14424  -0.0617    6.01869 
 8                    -6.16621  -2.00367   11.91325 
 8                    -3.16915  -0.99291   11.91559 
 8                    -4.3469    1.57919   7.83725 
 8                    -5.00898  -4.68841   7.92449 
 8                    -2.31212   0.56147   10.07528 
 8                    -7.04446  -3.61704   10.13092 
 8                    -2.57177  -3.91141   7.86643 
 8                    -6.80369   0.79194   7.8022 
 8                    -7.81855  -1.17908   10.1441 
 8                    -1.54927  -1.87793   10.14178 
 8                    -3.35128  -1.16216   8.01343 
 8                    -6.0113   -1.96403   8.03385 
 8                    -5.10901  -0.2124    9.94217 
 8                    -4.2371   -2.8515    9.9762 
 19                   -3.21539  -6.1348    5.64812 
 19                   -0.12087   0.03337   12.32324 
 19                   -9.28355  -2.82098   12.42143 
 23                   -4.67921  -1.54426   8.98998 
 

 GradGradGradGradGradGradGradGradGradGradGradGradGradGradGradGradGradGrad
 Berny optimization.
 Initialization pass.
 Trust Radius=3.00D-01 FncErr=1.00D-07 GrdErr=1.00D-07 EigMax=2.50D+02 EigMin=1.00D-04
 Number of steps in this run=      2 maximum allowed number of steps=      2.
 GradGradGradGradGradGradGradGradGradGradGradGradGradGradGradGradGradGrad

 Symmetry turned off by external request.
 Stoichiometry    C8H8ClK3O40VW12(1-)
 Framework group  C1[X(C8H8ClK3O40VW12)]
 Deg. of freedom   213
 Full point group                 C1      NOp   1
                          Input orientation:                          
 ---------------------------------------------------------------------
 Center     Atomic      Atomic             Coordinates (Angstroms)
 Number     Number       Type             X           Y           Z
 ---------------------------------------------------------------------
      1         17           0       -9.641168    8.268651   10.538991
      2          6           0       -8.352393    4.258451   12.210509
      3          6           0       -9.147235    3.935204   11.094607
      4          6           0      -10.061167    2.872263   11.216397
      5          6           0      -10.207024    2.184571   12.416511
      6          6           0       -9.428984    2.533596   13.521371
      7          6           0       -8.493515    3.564783   13.408690
      8          1           0       -7.614655    5.061242   12.142880
      9          1           0      -10.673087    2.598766   10.352269
     10          1           0      -10.931392    1.369967   12.490797
     11          1           0       -9.540317    1.994046   14.464352
     12          1           0       -7.871230    3.833029   14.266204
     13          6           0       -9.091298    4.678053    9.834802
     14          6           0       -8.425141    5.832031    9.622143
     15          1           0       -9.680278    4.251840    9.014805
     16          1           0       -8.450692    6.316332    8.645174
     17          1           0       -7.792038    6.294296   10.378820
     18          8           0       -0.975307   -1.806395    7.463092
     19          8           0       -8.384479   -1.330870    7.462161
     20          8           0       -7.015812    1.344341   10.476202
     21          8           0       -2.334446   -4.398353   10.555137
     22         74           0       -3.395023    0.695945    6.483860
     23         74           0       -5.989124   -3.825588    6.559832
     24         74           0       -3.604042    0.870824   11.411539
     25         74           0       -5.762997   -3.871241   11.481316
     26         74           0       -2.432395   -2.590552    6.397679
     27         74           0       -6.929243   -0.537198    6.365109
     28         74           0       -6.808296   -0.254055   11.566807
     29         74           0       -2.545943   -2.741889   11.607045
     30          8           0       -3.159509    1.880974    5.305371
     31          8           0       -6.123883   -5.075599    5.417359
     32          8           0       -2.675607    1.709744   12.561843
     33          8           0       -6.681158   -4.673953   12.662921
     34          8           0       -2.660395   -0.915931    5.588776
     35          8           0       -6.698114   -2.271447    5.620332
     36          8           0       -5.298144    0.547819   12.358545
     37          8           0       -4.050771   -3.537477   12.408655
     38          8           0        0.321167   -0.029412    9.275825
     39          8           0       -9.690254   -3.038128    9.322358
     40          8           0       -6.349241    3.426181    8.665971
     41          8           0       -3.007455   -6.495585    8.744329
     42          8           0       -1.773118    0.740876    7.473711
     43          8           0       -7.596704   -3.883076    7.542014
     44          8           0       -4.486056    2.194481   10.424759
     45          8           0       -4.871862   -5.236135   10.529412
     46          8           0       -1.602938   -3.528632    5.247452
     47          8           0       -7.805372    0.272032    5.170291
     48          8           0       -8.026996   -0.162524   12.746105
     49          8           0       -1.313901   -2.863550   12.770498
     50         74           0       -1.238875   -0.544998    8.839170
     51         74           0       -8.129936   -2.536190    8.873509
     52         74           0       -5.872924    1.854398    9.044024
     53         74           0       -3.491980   -4.921109    9.162812
     54          8           0       -4.212982   -3.116953    6.072329
     55          8           0       -5.144244   -0.061701    6.018685
     56          8           0       -6.166214   -2.003674   11.913254
     57          8           0       -3.169150   -0.992907   11.915587
     58          8           0       -4.346897    1.579193    7.837246
     59          8           0       -5.008982   -4.688413    7.924493
     60          8           0       -2.312118    0.561474   10.075284
     61          8           0       -7.044463   -3.617042   10.130924
     62          8           0       -2.571767   -3.911411    7.866426
     63          8           0       -6.803687    0.791945    7.802204
     64          8           0       -7.818547   -1.179075   10.144101
     65          8           0       -1.549269   -1.877933   10.141781
     66          8           0       -3.351279   -1.162164    8.013430
     67          8           0       -6.011301   -1.964031    8.033846
     68          8           0       -5.109014   -0.212400    9.942174
     69          8           0       -4.237103   -2.851498    9.976197
     70         19           0       -3.215392   -6.134801    5.648123
     71         19           0       -0.120867    0.033374   12.323239
     72         19           0       -9.283545   -2.820983   12.421434
     73         23           0       -4.679211   -1.544257    8.989982
 ---------------------------------------------------------------------
 Rotational constants (GHZ):           0.0172115           0.0132185           0.0129962
 Standard basis: def2SVP (5D, 7F)
  1217 basis functions,  2313 primitive gaussians,  1337 cartesian basis functions
   321 alpha electrons      321 beta electrons
       nuclear repulsion energy     20976.1494948980 Hartrees.
 NAtoms=   73 NActive=   73 NUniq=   73 SFac= 1.00D+00 NAtFMM=   60 NAOKFM=T Big=T
 Integral buffers will be    131072 words long.
 Raffenetti 2 integral format.
 Two-electron integral symmetry is turned off.
 Nuclear repulsion after empirical dispersion term =    20975.8731445017 Hartrees.
 Force PCM accuracy= 1.00D-10.
 ------------------------------------------------------------------------------
 Polarizable Continuum Model (PCM)
 =================================
 Model                : PCM (using non-symmetric T matrix).
 Atomic radii         : SMD-Coulomb.
 Polarization charges : Total charges.
 Charge compensation  : None.
 Solution method      : On-the-fly selection.
 Cavity type          : VdW (van der Waals Surface) (Alpha=1.000).
 Cavity algorithm     : GePol (No added spheres)
                        Default sphere list used, NSphG=   73.
                        Lebedev-Laikov grids with approx.  5.0 points / Ang**2.
                        Smoothing algorithm: York/Karplus (Gamma=1.0000).
                        Polarization charges: spherical gaussians, with
                                              point-specific exponents (IZeta= 3).
                        Self-potential: point-specific (ISelfS= 7).
                        Self-field    : sphere-specific E.n sum rule (ISelfD= 2).
 1st derivatives      : Analytical E(r).r(x)/FMM algorithm (CHGder, D1EAlg=3).
                        Cavity 1st derivative terms included.
 Solvent              : Acetonitrile, Eps=  35.688000 Eps(inf)=   1.806874
 ------------------------------------------------------------------------------
 ------------------------------------------------------------------------------
 Atomic radii for non-electrostatic terms: SMD-CDS.
 ------------------------------------------------------------------------------
 Nuclear repulsion after PCM non-electrostatic terms =    20975.8674445490 Hartrees.
 One-electron integrals computed using PRISM.
   1 Symmetry operations used in ECPInt.
 ECPInt:  NShTT=  127765 NPrTT=  468030 LenC2=   96506 LenP2D=  220856.
 LDataN:  DoStor=T MaxTD1= 8 Len=  415
 NBasis=  1217 RedAO= T EigKep=  1.38D-04  NBF=  1217
 NBsUse=  1217 1.00D-06 EigRej= -1.00D+00 NBFU=  1217
 Defaulting to unpruned grid for atomic number  74.
 Defaulting to unpruned grid for atomic number  74.
 Defaulting to unpruned grid for atomic number  74.
 Defaulting to unpruned grid for atomic number  74.
 Defaulting to unpruned grid for atomic number  74.
 Defaulting to unpruned grid for atomic number  74.
 Defaulting to unpruned grid for atomic number  74.
 Defaulting to unpruned grid for atomic number  74.
 Initial guess from the checkpoint file:  "a.chk"
 B after Tr=     0.001158   -0.000586    0.000285
         Rot=    1.000000   -0.000016    0.000012    0.000033 Ang=  -0.00 deg.
 Requested convergence on RMS density matrix=1.00D-08 within  64 cycles.
 Requested convergence on MAX density matrix=1.00D-06.
 Requested convergence on             energy=1.00D-06.
 No special actions if energy rises.
 Defaulting to unpruned grid for atomic number  74.
 Defaulting to unpruned grid for atomic number  74.
 Defaulting to unpruned grid for atomic number  74.
 Defaulting to unpruned grid for atomic number  74.
 Defaulting to unpruned grid for atomic number  74.
 Defaulting to unpruned grid for atomic number  74.
 Defaulting to unpruned grid for atomic number  74.
 Defaulting to unpruned grid for atomic number  74.
 Defaulting to unpruned grid for atomic number  74.
 Defaulting to unpruned grid for atomic number  74.
 Defaulting to unpruned grid for atomic number  74.
 Defaulting to unpruned grid for atomic number  74.
 Defaulting to unpruned grid for atomic number  74.
 Defaulting to unpruned grid for atomic number  74.
 Defaulting to unpruned grid for atomic number  74.
 Defaulting to unpruned grid for atomic number  74.
 Defaulting to unpruned grid for atomic number  74.
 Defaulting to unpruned grid for atomic number  74.
 Defaulting to unpruned grid for atomic number  74.
 Defaulting to unpruned grid for atomic number  74.
 Defaulting to unpruned grid for atomic number  74.
 Defaulting to unpruned grid for atomic number  74.
 Defaulting to unpruned grid for atomic number  74.
 Defaulting to unpruned grid for atomic number  74.
 Defaulting to unpruned grid for atomic number  74.
 Defaulting to unpruned grid for atomic number  74.
 Defaulting to unpruned grid for atomic number  74.
 Defaulting to unpruned grid for atomic number  74.
 Defaulting to unpruned grid for atomic number  74.
 Defaulting to unpruned grid for atomic number  74.
 Defaulting to unpruned grid for atomic number  74.
 Defaulting to unpruned grid for atomic number  74.
 Defaulting to unpruned grid for atomic number  74.
 Defaulting to unpruned grid for atomic number  74.
 Defaulting to unpruned grid for atomic number  74.
 Defaulting to unpruned grid for atomic number  74.
 Defaulting to unpruned grid for atomic number  74.
 Defaulting to unpruned grid for atomic number  74.
 Defaulting to unpruned grid for atomic number  74.
 Defaulting to unpruned grid for atomic number  74.
 Defaulting to unpruned grid for atomic number  74.
 Defaulting to unpruned grid for atomic number  74.
 Defaulting to unpruned grid for atomic number  74.
 Defaulting to unpruned grid for atomic number  74.
 Defaulting to unpruned grid for atomic number  74.
 Defaulting to unpruned grid for atomic number  74.
 Defaulting to unpruned grid for atomic number  74.
 Defaulting to unpruned grid for atomic number  74.
 Defaulting to unpruned grid for atomic number  74.
 Defaulting to unpruned grid for atomic number  74.
 Defaulting to unpruned grid for atomic number  74.
 Defaulting to unpruned grid for atomic number  74.
 Defaulting to unpruned grid for atomic number  74.
 Defaulting to unpruned grid for atomic number  74.
 Defaulting to unpruned grid for atomic number  74.
 Defaulting to unpruned grid for atomic number  74.
 Inv3:  Mode=1 IEnd=    87447603.
 Iteration    1 A*A^-1 deviation from unit magnitude is 3.77D-15 for   2726.
 Iteration    1 A*A^-1 deviation from orthogonality  is 4.54D-15 for    731    493.
 Iteration    1 A^-1*A deviation from unit magnitude is 3.66D-15 for   2764.
 Iteration    1 A^-1*A deviation from orthogonality  is 3.34D-10 for    910    848.
 Iteration    2 A*A^-1 deviation from unit magnitude is 4.88D-15 for   3601.
 Iteration    2 A*A^-1 deviation from orthogonality  is 5.44D-15 for    899     77.
 Iteration    2 A^-1*A deviation from unit magnitude is 1.22D-15 for   3162.
 Iteration    2 A^-1*A deviation from orthogonality  is 6.67D-16 for   1979   1935.
 Error on total polarization charges =  0.01615
 SCF Done:  E(RwB97XD) =  -7327.70192420     A.U. after   11 cycles
            NFock= 11  Conv=0.45D-08     -V/T= 2.0832
 SMD-CDS (non-electrostatic) energy       (kcal/mol) =      -3.58
 (included in total energy above)
 QCSCF skips out because SCF is already converged.

 **********************************************************************

            Population analysis using the SCF Density.

 **********************************************************************

 Alpha  occ. eigenvalues -- -197.29411-130.00094-130.00062-129.99991-101.48381
 Alpha  occ. eigenvalues --  -22.62539 -19.33620 -19.33610 -19.33608 -19.33586
 Alpha  occ. eigenvalues --  -19.30729 -19.30692 -19.30691 -19.30681 -19.30680
 Alpha  occ. eigenvalues --  -19.30670 -19.30666 -19.30641 -19.30570 -19.30369
 Alpha  occ. eigenvalues --  -19.30346 -19.30175 -19.29323 -19.29321 -19.29298
 Alpha  occ. eigenvalues --  -19.29285 -19.29271 -19.29268 -19.29239 -19.29218
 Alpha  occ. eigenvalues --  -19.29209 -19.29178 -19.29175 -19.29152 -19.29140
 Alpha  occ. eigenvalues --  -19.29103 -19.29098 -19.29096 -19.29093 -19.29068
 Alpha  occ. eigenvalues --  -19.29064 -19.29026 -19.28996 -19.28972 -19.28950
 Alpha  occ. eigenvalues --  -19.28866 -19.11495 -19.11487 -19.11479 -13.37497
 Alpha  occ. eigenvalues --  -13.37464 -13.37387 -10.70427 -10.70420 -10.70419
 Alpha  occ. eigenvalues --  -10.70394 -10.70387 -10.70385 -10.70318 -10.70311
 Alpha  occ. eigenvalues --  -10.70306 -10.29827 -10.29331 -10.29277 -10.29039
 Alpha  occ. eigenvalues --  -10.28943 -10.28935 -10.28062 -10.27447  -9.38857
 Alpha  occ. eigenvalues --   -7.13684  -7.13634  -7.13627  -3.23322  -3.23321
 Alpha  occ. eigenvalues --   -3.23303  -3.23298  -3.23293  -3.23273  -3.23259
 Alpha  occ. eigenvalues --   -3.23257  -3.23228  -3.22976  -3.22960  -3.22780
 Alpha  occ. eigenvalues --   -2.91790  -1.94174  -1.94141  -1.94129  -1.87722
 Alpha  occ. eigenvalues --   -1.87678  -1.87662  -1.87632  -1.87492  -1.87473
 Alpha  occ. eigenvalues --   -1.87470  -1.87454  -1.87431  -1.87278  -1.87248
 Alpha  occ. eigenvalues --   -1.87096  -1.86630  -1.86513  -1.86502  -1.86485
 Alpha  occ. eigenvalues --   -1.86459  -1.86438  -1.86347  -1.86335  -1.86319
 Alpha  occ. eigenvalues --   -1.86300  -1.86293  -1.86265  -1.86150  -1.86138
 Alpha  occ. eigenvalues --   -1.86125  -1.86116  -1.86044  -1.86030  -1.85992
 Alpha  occ. eigenvalues --   -1.85923  -1.85905  -1.85806  -1.85717  -1.85668
 Alpha  occ. eigenvalues --   -1.51188  -1.51156  -1.51085  -1.13051  -1.11280
 Alpha  occ. eigenvalues --   -1.11195  -1.11193  -1.08967  -1.08532  -1.08493
 Alpha  occ. eigenvalues --   -1.08325  -1.07566  -1.07505  -1.07496  -1.06904
 Alpha  occ. eigenvalues --   -1.06896  -1.06876  -1.06328  -1.06306  -1.05325
 Alpha  occ. eigenvalues --   -1.05317  -1.04985  -1.04981  -1.04969  -1.04200
 Alpha  occ. eigenvalues --   -1.04191  -1.04177  -1.04034  -1.04011  -1.04002
 Alpha  occ. eigenvalues --   -1.03945  -1.03923  -1.03900  -1.03766  -1.03747
 Alpha  occ. eigenvalues --   -1.03622  -1.03560  -1.03306  -1.03268  -1.03124
 Alpha  occ. eigenvalues --   -1.03113  -1.03037  -1.02969  -0.94356  -0.86657
 Alpha  occ. eigenvalues --   -0.86630  -0.86561  -0.86482  -0.86463  -0.86462
 Alpha  occ. eigenvalues --   -0.86436  -0.86421  -0.86374  -0.86338  -0.82798
 Alpha  occ. eigenvalues --   -0.79719  -0.71645  -0.69642  -0.67984  -0.64618
 Alpha  occ. eigenvalues --   -0.63993  -0.63915  -0.63901  -0.63312  -0.63292
 Alpha  occ. eigenvalues --   -0.63172  -0.62908  -0.62676  -0.62604  -0.61990
 Alpha  occ. eigenvalues --   -0.61622  -0.61607  -0.61513  -0.61259  -0.61247
 Alpha  occ. eigenvalues --   -0.61184  -0.60420  -0.59485  -0.59462  -0.59452
 Alpha  occ. eigenvalues --   -0.59414  -0.59368  -0.58571  -0.58007  -0.57975
 Alpha  occ. eigenvalues --   -0.57889  -0.57065  -0.57033  -0.57004  -0.56294
 Alpha  occ. eigenvalues --   -0.56276  -0.56121  -0.55706  -0.54865  -0.54813
 Alpha  occ. eigenvalues --   -0.54771  -0.54511  -0.54244  -0.54113  -0.54104
 Alpha  occ. eigenvalues --   -0.54025  -0.53963  -0.53246  -0.53212  -0.53079
 Alpha  occ. eigenvalues --   -0.53045  -0.52907  -0.52718  -0.52682  -0.52645
 Alpha  occ. eigenvalues --   -0.52616  -0.52511  -0.52470  -0.52408  -0.51617
 Alpha  occ. eigenvalues --   -0.51601  -0.51333  -0.51314  -0.51271  -0.51231
 Alpha  occ. eigenvalues --   -0.51176  -0.51164  -0.50930  -0.50775  -0.50602
 Alpha  occ. eigenvalues --   -0.50583  -0.50574  -0.49887  -0.49881  -0.49300
 Alpha  occ. eigenvalues --   -0.49274  -0.49239  -0.49215  -0.49165  -0.49081
 Alpha  occ. eigenvalues --   -0.48898  -0.48078  -0.48030  -0.47922  -0.47649
 Alpha  occ. eigenvalues --   -0.47390  -0.47294  -0.47251  -0.46997  -0.46947
 Alpha  occ. eigenvalues --   -0.46827  -0.46551  -0.46509  -0.46498  -0.46192
 Alpha  occ. eigenvalues --   -0.46144  -0.46105  -0.45591  -0.45106  -0.44923
 Alpha  occ. eigenvalues --   -0.44882  -0.44214  -0.44145  -0.44036  -0.43491
 Alpha  occ. eigenvalues --   -0.43291  -0.43240  -0.43122  -0.43109  -0.43076
 Alpha  occ. eigenvalues --   -0.42714  -0.42693  -0.42665  -0.42596  -0.42586
 Alpha  occ. eigenvalues --   -0.42505  -0.42474  -0.42452  -0.42295  -0.42279
 Alpha  occ. eigenvalues --   -0.42262  -0.42031  -0.41919  -0.41866  -0.41848
 Alpha  occ. eigenvalues --   -0.41178  -0.41169  -0.41126  -0.41031  -0.40553
 Alpha  occ. eigenvalues --   -0.40531  -0.40515  -0.40374  -0.39443  -0.39441
 Alpha  occ. eigenvalues --   -0.36980  -0.32542  -0.29188  -0.25158  -0.25130
 Alpha  occ. eigenvalues --   -0.23525
 Alpha virt. eigenvalues --   -0.09434  -0.09220  -0.08508  -0.08450  -0.07028
 Alpha virt. eigenvalues --   -0.07007  -0.06927  -0.04442  -0.04141  -0.04095
 Alpha virt. eigenvalues --   -0.03719  -0.03489  -0.03441  -0.03237  -0.03136
 Alpha virt. eigenvalues --   -0.03096  -0.03069  -0.02219  -0.02167  -0.02136
 Alpha virt. eigenvalues --   -0.01510  -0.01490  -0.01439  -0.01306  -0.01239
 Alpha virt. eigenvalues --   -0.00100  -0.00076  -0.00019   0.01403   0.01458
 Alpha virt. eigenvalues --    0.01905   0.01932   0.02031   0.02141   0.02171
 Alpha virt. eigenvalues --    0.02180   0.02251   0.02301   0.02771   0.02841
 Alpha virt. eigenvalues --    0.02909   0.02983   0.03016   0.04446   0.04531
 Alpha virt. eigenvalues --    0.06759   0.07277   0.07513   0.07541   0.07792
 Alpha virt. eigenvalues --    0.08018   0.08487   0.08528   0.08793   0.09152
 Alpha virt. eigenvalues --    0.09336   0.09387   0.09664   0.09883   0.10244
 Alpha virt. eigenvalues --    0.10321   0.10362   0.10423   0.10472   0.10637
 Alpha virt. eigenvalues --    0.10896   0.11052   0.11062   0.11640   0.11722
 Alpha virt. eigenvalues --    0.12216   0.13124   0.13233   0.13328   0.13600
 Alpha virt. eigenvalues --    0.13759   0.14466   0.14560   0.14680   0.15004
 Alpha virt. eigenvalues --    0.15552   0.16153   0.16337   0.16576   0.16747
 Alpha virt. eigenvalues --    0.16764   0.16912   0.17078   0.17246   0.17717
 Alpha virt. eigenvalues --    0.17909   0.18159   0.18220   0.18379   0.18577
 Alpha virt. eigenvalues --    0.18744   0.19041   0.19284   0.19399   0.19572
 Alpha virt. eigenvalues --    0.19641   0.20184   0.20284   0.20474   0.20588
 Alpha virt. eigenvalues --    0.20749   0.20878   0.20992   0.21355   0.21414
 Alpha virt. eigenvalues --    0.21522   0.21623   0.21690   0.21871   0.22035
 Alpha virt. eigenvalues --    0.22459   0.22732   0.22907   0.23142   0.23217
 Alpha virt. eigenvalues --    0.23460   0.23776   0.23973   0.24274   0.24579
 Alpha virt. eigenvalues --    0.24756   0.25212   0.25437   0.25674   0.25858
 Alpha virt. eigenvalues --    0.26006   0.26199   0.26431   0.26589   0.26683
 Alpha virt. eigenvalues --    0.26960   0.27235   0.27371   0.27436   0.27746
 Alpha virt. eigenvalues --    0.28035   0.28267   0.28316   0.28623   0.28740
 Alpha virt. eigenvalues --    0.29147   0.29512   0.29898   0.30355   0.30510
 Alpha virt. eigenvalues --    0.30732   0.30924   0.31246   0.31479   0.31821
 Alpha virt. eigenvalues --    0.32300   0.34767   0.35209   0.35774   0.36325
 Alpha virt. eigenvalues --    0.36651   0.36924   0.37280   0.38116   0.38415
 Alpha virt. eigenvalues --    0.38643   0.39182   0.39506   0.39644   0.40239
 Alpha virt. eigenvalues --    0.40707   0.40857   0.40954   0.41126   0.41741
 Alpha virt. eigenvalues --    0.42110   0.42462   0.42787   0.43287   0.43533
 Alpha virt. eigenvalues --    0.43694   0.44485   0.44744   0.44875   0.45248
 Alpha virt. eigenvalues --    0.45769   0.46323   0.46549   0.46677   0.47340
 Alpha virt. eigenvalues --    0.47387   0.47644   0.47849   0.48077   0.48211
 Alpha virt. eigenvalues --    0.48411   0.48450   0.48582   0.48683   0.48962
 Alpha virt. eigenvalues --    0.49160   0.49389   0.49439   0.49802   0.49816
 Alpha virt. eigenvalues --    0.50189   0.50453   0.50628   0.50764   0.50988
 Alpha virt. eigenvalues --    0.51627   0.51716   0.51885   0.52240   0.52423
 Alpha virt. eigenvalues --    0.52662   0.52904   0.53007   0.53153   0.53307
 Alpha virt. eigenvalues --    0.53628   0.54037   0.54256   0.54347   0.54493
 Alpha virt. eigenvalues --    0.54957   0.55402   0.55644   0.56351   0.56440
 Alpha virt. eigenvalues --    0.56814   0.57394   0.57741   0.58031   0.58290
 Alpha virt. eigenvalues --    0.58566   0.59080   0.59456   0.60164   0.60780
 Alpha virt. eigenvalues --    0.61373   0.62306   0.62612   0.62765   0.63229
 Alpha virt. eigenvalues --    0.64170   0.65270   0.65686   0.65724   0.65928
 Alpha virt. eigenvalues --    0.66137   0.66533   0.66995   0.67372   0.67436
 Alpha virt. eigenvalues --    0.67838   0.68325   0.69617   0.70226   0.71109
 Alpha virt. eigenvalues --    0.71406   0.71914   0.72142   0.72227   0.72277
 Alpha virt. eigenvalues --    0.72561   0.72729   0.73254   0.73364   0.73984
 Alpha virt. eigenvalues --    0.74606   0.74834   0.75544   0.75671   0.75881
 Alpha virt. eigenvalues --    0.76170   0.76770   0.76904   0.77176   0.77446
 Alpha virt. eigenvalues --    0.78023   0.78496   0.79081   0.79468   0.79692
 Alpha virt. eigenvalues --    0.80255   0.80521   0.80648   0.80721   0.81464
 Alpha virt. eigenvalues --    0.81515   0.81806   0.82017   0.82502   0.83216
 Alpha virt. eigenvalues --    0.83989   0.84228   0.84740   0.85408   0.85903
 Alpha virt. eigenvalues --    0.87168   0.87507   0.87965   0.88048   0.88689
 Alpha virt. eigenvalues --    0.88919   0.89006   0.89495   0.89624   0.90269
 Alpha virt. eigenvalues --    0.90664   0.90933   0.91228   0.91450   0.91731
 Alpha virt. eigenvalues --    0.92796   0.93048   0.93525   0.93872   0.94091
 Alpha virt. eigenvalues --    0.94186   0.94811   0.95638   0.95864   0.96511
 Alpha virt. eigenvalues --    0.96846   0.97058   0.97262   0.97716   0.97813
 Alpha virt. eigenvalues --    0.98150   0.98278   0.98407   0.98547   0.98787
 Alpha virt. eigenvalues --    0.98914   0.99430   0.99934   1.00351   1.00549
 Alpha virt. eigenvalues --    1.00871   1.01259   1.01534   1.01632   1.01679
 Alpha virt. eigenvalues --    1.02112   1.02234   1.02421   1.02461   1.02655
 Alpha virt. eigenvalues --    1.02898   1.03403   1.03495   1.03632   1.03870
 Alpha virt. eigenvalues --    1.04147   1.04204   1.04361   1.04641   1.04730
 Alpha virt. eigenvalues --    1.04996   1.05099   1.05242   1.05439   1.05798
 Alpha virt. eigenvalues --    1.05933   1.06365   1.06592   1.06996   1.07140
 Alpha virt. eigenvalues --    1.07514   1.07839   1.08625   1.09068   1.09238
 Alpha virt. eigenvalues --    1.09399   1.09833   1.09908   1.10098   1.10235
 Alpha virt. eigenvalues --    1.10749   1.10847   1.10952   1.11011   1.11266
 Alpha virt. eigenvalues --    1.11469   1.11672   1.11741   1.12095   1.12467
 Alpha virt. eigenvalues --    1.12772   1.13438   1.13597   1.14135   1.14832
 Alpha virt. eigenvalues --    1.15269   1.15754   1.16170   1.16255   1.16652
 Alpha virt. eigenvalues --    1.17065   1.17644   1.17849   1.18648   1.18699
 Alpha virt. eigenvalues --    1.19589   1.20583   1.20953   1.21152   1.21297
 Alpha virt. eigenvalues --    1.21472   1.21914   1.22128   1.22958   1.23575
 Alpha virt. eigenvalues --    1.25094   1.26023   1.26465   1.26664   1.27000
 Alpha virt. eigenvalues --    1.27505   1.28176   1.28466   1.28576   1.28632
 Alpha virt. eigenvalues --    1.28836   1.29104   1.29174   1.29386   1.29740
 Alpha virt. eigenvalues --    1.30161   1.30190   1.30389   1.30734   1.30807
 Alpha virt. eigenvalues --    1.31129   1.32171   1.32473   1.32966   1.33200
 Alpha virt. eigenvalues --    1.33280   1.33453   1.33668   1.33891   1.34091
 Alpha virt. eigenvalues --    1.34276   1.34329   1.34545   1.34758   1.34876
 Alpha virt. eigenvalues --    1.34942   1.35190   1.35653   1.35784   1.36110
 Alpha virt. eigenvalues --    1.36178   1.36522   1.36724   1.36819   1.36976
 Alpha virt. eigenvalues --    1.37201   1.37362   1.37530   1.37860   1.37903
 Alpha virt. eigenvalues --    1.38163   1.38481   1.38703   1.38983   1.39141
 Alpha virt. eigenvalues --    1.39370   1.39488   1.39634   1.39784   1.40221
 Alpha virt. eigenvalues --    1.40347   1.40505   1.40570   1.40735   1.40968
 Alpha virt. eigenvalues --    1.41090   1.41223   1.41479   1.41894   1.42051
 Alpha virt. eigenvalues --    1.42554   1.43056   1.43263   1.43405   1.43444
 Alpha virt. eigenvalues --    1.43869   1.44225   1.44526   1.44611   1.45656
 Alpha virt. eigenvalues --    1.46270   1.47095   1.47584   1.47689   1.48048
 Alpha virt. eigenvalues --    1.48232   1.48606   1.49203   1.49609   1.49895
 Alpha virt. eigenvalues --    1.50467   1.51004   1.51326   1.51887   1.53262
 Alpha virt. eigenvalues --    1.53659   1.55384   1.55776   1.55809   1.55988
 Alpha virt. eigenvalues --    1.56162   1.56364   1.56670   1.56738   1.57165
 Alpha virt. eigenvalues --    1.57188   1.58015   1.58274   1.59226   1.59270
 Alpha virt. eigenvalues --    1.59796   1.60216   1.60349   1.60464   1.60546
 Alpha virt. eigenvalues --    1.60692   1.61191   1.61925   1.62201   1.62431
 Alpha virt. eigenvalues --    1.64146   1.64424   1.65104   1.65741   1.66803
 Alpha virt. eigenvalues --    1.67505   1.67938   1.69849   1.70550   1.70876
 Alpha virt. eigenvalues --    1.71294   1.71659   1.72360   1.73335   1.74145
 Alpha virt. eigenvalues --    1.75228   1.75430   1.75537   1.75917   1.76699
 Alpha virt. eigenvalues --    1.76888   1.76955   1.77566   1.77817   1.78721
 Alpha virt. eigenvalues --    1.78830   1.79316   1.79803   1.80478   1.80733
 Alpha virt. eigenvalues --    1.81193   1.81291   1.82093   1.82340   1.82948
 Alpha virt. eigenvalues --    1.83061   1.83269   1.83926   1.84161   1.84521
 Alpha virt. eigenvalues --    1.85179   1.85538   1.85747   1.86095   1.86317
 Alpha virt. eigenvalues --    1.86547   1.87157   1.87419   1.88148   1.88650
 Alpha virt. eigenvalues --    1.89360   1.89935   1.90167   1.90351   1.90392
 Alpha virt. eigenvalues --    1.90822   1.90990   1.91318   1.92337   1.93343
 Alpha virt. eigenvalues --    1.94867   1.95279   1.95432   1.95645   1.96041
 Alpha virt. eigenvalues --    1.98194   1.99275   1.99473   1.99545   2.04224
 Alpha virt. eigenvalues --    2.06297   2.07146   2.08175   2.08538   2.08756
 Alpha virt. eigenvalues --    2.09003   2.09158   2.09507   2.10166   2.10985
 Alpha virt. eigenvalues --    2.11498   2.11967   2.12689   2.14755   2.15678
 Alpha virt. eigenvalues --    2.15987   2.16839   2.17265   2.17435   2.17816
 Alpha virt. eigenvalues --    2.20080   2.20480   2.20546   2.20751   2.20894
 Alpha virt. eigenvalues --    2.21198   2.22214   2.24241   2.25374   2.26052
 Alpha virt. eigenvalues --    2.26395   2.26739   2.27313   2.28457   2.28902
 Alpha virt. eigenvalues --    2.29129   2.29797   2.30354   2.33523   2.35685
 Alpha virt. eigenvalues --    2.36806   2.40127   2.40969   2.41014   2.43607
 Alpha virt. eigenvalues --    2.44299   2.50519   2.51714   2.57270   2.64730
 Alpha virt. eigenvalues --    2.64791   2.64930   2.65500   2.65996   2.66578
 Alpha virt. eigenvalues --    2.66787   2.66832   2.66934   2.66969   2.67052
 Alpha virt. eigenvalues --    2.67090   2.67149   2.67318   2.67350   2.67402
 Alpha virt. eigenvalues --    2.67642   2.67679   2.67807   2.67847   2.67904
 Alpha virt. eigenvalues --    2.68659   2.68911   2.69220   2.69377   2.70010
 Alpha virt. eigenvalues --    2.70180   2.70282   2.70621   2.70695   2.70804
 Alpha virt. eigenvalues --    2.70961   2.71366   2.71429   2.71522   2.71584
 Alpha virt. eigenvalues --    2.71649   2.71907   2.72685   2.72898   2.72967
 Alpha virt. eigenvalues --    2.73084   2.73182   2.73249   2.73328   2.73364
 Alpha virt. eigenvalues --    2.73488   2.73744   2.73869   2.73894   2.73990
 Alpha virt. eigenvalues --    2.74051   2.74140   2.74313   2.74532   2.74693
 Alpha virt. eigenvalues --    2.74757   2.74902   2.75060   2.75589   2.75953
 Alpha virt. eigenvalues --    2.76161   2.76288   2.76443   2.76706   2.76894
 Alpha virt. eigenvalues --    2.77056   2.77173   2.77193   2.78417   2.78561
 Alpha virt. eigenvalues --    2.78633   2.78885   2.79809   2.80070   2.80172
 Alpha virt. eigenvalues --    2.81075   2.81790   2.81803   2.82101   2.82307
 Alpha virt. eigenvalues --    2.82333   2.82727   2.83105   2.83280   2.83665
 Alpha virt. eigenvalues --    2.83779   2.83924   2.83995   2.84234   2.85100
 Alpha virt. eigenvalues --    2.85565   2.86133   2.86231   2.86310   2.86388
 Alpha virt. eigenvalues --    2.86595   2.86774   2.86899   2.88186   2.88490
 Alpha virt. eigenvalues --    2.88672   2.89050   2.89660   2.89718   2.89822
 Alpha virt. eigenvalues --    2.89939   2.89987   2.90088   2.90553   2.90615
 Alpha virt. eigenvalues --    2.90737   2.91739   2.91888   2.92038   2.92069
 Alpha virt. eigenvalues --    2.92278   2.92482   2.92764   2.92922   2.93056
 Alpha virt. eigenvalues --    2.93353   2.93537   2.93650   2.93998   2.94117
 Alpha virt. eigenvalues --    2.94171   2.95013   2.95186   2.95395   2.95732
 Alpha virt. eigenvalues --    2.95821   2.95869   2.96412   2.96592   2.96672
 Alpha virt. eigenvalues --    2.96747   2.96939   2.96969   2.97206   2.97419
 Alpha virt. eigenvalues --    2.97587   2.97720   2.97915   2.98354   2.99135
 Alpha virt. eigenvalues --    2.99351   2.99396   2.99671   2.99752   3.00040
 Alpha virt. eigenvalues --    3.00107   3.00428   3.01062   3.01407   3.01487
 Alpha virt. eigenvalues --    3.02749   3.03188   3.03388   3.03747   3.05138
 Alpha virt. eigenvalues --    3.06505   3.06705   3.07142   3.11063   3.11618
 Alpha virt. eigenvalues --    3.11739   3.11855   3.12209   3.12648   3.13722
 Alpha virt. eigenvalues --    3.13856   3.14008   3.16861   3.19798   3.21707
 Alpha virt. eigenvalues --    3.21852   3.23935   3.32593   3.41101   3.41452
 Alpha virt. eigenvalues --    3.42095   3.43122   3.44841   3.44882   3.45811
 Alpha virt. eigenvalues --    3.46263   3.46337   3.47175   3.47414   3.47793
 Alpha virt. eigenvalues --    3.48347   3.51175   3.51748   3.52274   3.53530
 Alpha virt. eigenvalues --    3.53843   3.54292   3.54631   3.54805   3.55002
 Alpha virt. eigenvalues --    3.55222   3.55337   3.55492   3.56566   3.57437
 Alpha virt. eigenvalues --    3.57651   3.58432   3.59445   3.59588   3.60261
 Alpha virt. eigenvalues --    3.60597   3.61230   3.61525   3.62036   3.62378
 Alpha virt. eigenvalues --    3.69527   3.74806  68.64223  68.65348  68.66345
 Alpha virt. eigenvalues --   68.68438  68.72572  68.73616  68.81643  68.82631
 Alpha virt. eigenvalues --   68.83346  68.85602  68.86787  68.88059 576.22660
 Alpha virt. eigenvalues --  576.23760 576.24737 576.26783 576.30924 576.31955
 Alpha virt. eigenvalues --  576.39833 576.40798 576.41493 576.43656 576.44811
 Alpha virt. eigenvalues --  576.46075
          Condensed to atoms (all electrons):
 Mulliken charges:
               1
     1  Cl  -0.892197
     2  C   -0.080802
     3  C    0.049263
     4  C   -0.079914
     5  C   -0.033719
     6  C   -0.033872
     7  C   -0.049556
     8  H    0.029983
     9  H    0.029022
    10  H    0.040914
    11  H    0.036759
    12  H    0.039711
    13  C   -0.125099
    14  C    0.025827
    15  H    0.020580
    16  H    0.035824
    17  H    0.024756
    18  O   -0.663734
    19  O   -0.663099
    20  O   -0.655307
    21  O   -0.664183
    22  W    1.734406
    23  W    1.676983
    24  W    1.687169
    25  W    1.697376
    26  W    1.677566
    27  W    1.728762
    28  W    1.619846
    29  W    1.688205
    30  O   -0.320161
    31  O   -0.365834
    32  O   -0.367863
    33  O   -0.359776
    34  O   -0.664339
    35  O   -0.671112
    36  O   -0.661573
    37  O   -0.664315
    38  O   -0.367932
    39  O   -0.364776
    40  O   -0.297579
    41  O   -0.365071
    42  O   -0.670538
    43  O   -0.664202
    44  O   -0.660656
    45  O   -0.666009
    46  O   -0.368139
    47  O   -0.320439
    48  O   -0.361528
    49  O   -0.362178
    50  W    1.674500
    51  W    1.680924
    52  W    1.684703
    53  W    1.686854
    54  O   -0.726325
    55  O   -0.708633
    56  O   -0.726313
    57  O   -0.724123
    58  O   -0.706363
    59  O   -0.727338
    60  O   -0.726175
    61  O   -0.721488
    62  O   -0.725594
    63  O   -0.707894
    64  O   -0.725965
    65  O   -0.726757
    66  O   -0.802284
    67  O   -0.801454
    68  O   -0.798730
    69  O   -0.810280
    70  K    0.863564
    71  K    0.862559
    72  K    0.860698
    73  V    1.194465
 Sum of Mulliken charges =  -1.00000
 Mulliken charges with hydrogens summed into heavy atoms:
               1
     1  Cl  -0.892197
     2  C   -0.050819
     3  C    0.049263
     4  C   -0.050892
     5  C    0.007195
     6  C    0.002887
     7  C   -0.009845
    13  C   -0.104520
    14  C    0.086406
    18  O   -0.663734
    19  O   -0.663099
    20  O   -0.655307
    21  O   -0.664183
    22  W    1.734406
    23  W    1.676983
    24  W    1.687169
    25  W    1.697376
    26  W    1.677566
    27  W    1.728762
    28  W    1.619846
    29  W    1.688205
    30  O   -0.320161
    31  O   -0.365834
    32  O   -0.367863
    33  O   -0.359776
    34  O   -0.664339
    35  O   -0.671112
    36  O   -0.661573
    37  O   -0.664315
    38  O   -0.367932
    39  O   -0.364776
    40  O   -0.297579
    41  O   -0.365071
    42  O   -0.670538
    43  O   -0.664202
    44  O   -0.660656
    45  O   -0.666009
    46  O   -0.368139
    47  O   -0.320439
    48  O   -0.361528
    49  O   -0.362178
    50  W    1.674500
    51  W    1.680924
    52  W    1.684703
    53  W    1.686854
    54  O   -0.726325
    55  O   -0.708633
    56  O   -0.726313
    57  O   -0.724123
    58  O   -0.706363
    59  O   -0.727338
    60  O   -0.726175
    61  O   -0.721488
    62  O   -0.725594
    63  O   -0.707894
    64  O   -0.725965
    65  O   -0.726757
    66  O   -0.802284
    67  O   -0.801454
    68  O   -0.798730
    69  O   -0.810280
    70  K    0.863564
    71  K    0.862559
    72  K    0.860698
    73  V    1.194465
 Electronic spatial extent (au):  <R**2>=         317245.6514
 Charge=             -1.0000 electrons
 Dipole moment (field-independent basis, Debye):
    X=             50.1638    Y=            -51.0937    Z=            -38.7969  Tot=             81.4382
 Quadrupole moment (field-independent basis, Debye-Ang):
   XX=          -1040.0032   YY=           -888.3020   ZZ=           -916.6188
   XY=            445.6727   XZ=            448.8629   YZ=           -476.3370
 Traceless Quadrupole moment (field-independent basis, Debye-Ang):
   XX=            -91.6952   YY=             60.0060   ZZ=             31.6892
   XY=            445.6727   XZ=            448.8629   YZ=           -476.3370
 Octapole moment (field-independent basis, Debye-Ang**2):
  XXX=          13181.9662  YYY=          -1074.0280  ZZZ=         -19179.5539  XYY=           6035.2977
  XXY=          -3518.9595  XXZ=          -9268.3153  XZZ=           7237.8383  YZZ=          -4154.1835
  YYZ=          -9038.7872  XYZ=           4709.0860
 Hexadecapole moment (field-independent basis, Debye-Ang**3):
 XXXX=        -155552.5713 YYYY=         -54062.3409 ZZZZ=        -346871.9646 XXXY=          35169.9939
 XXXZ=         120191.2218 YYYX=          20587.2517 YYYZ=         -12840.0078 ZZZX=         126495.0211
 ZZZY=         -35384.5933 XXYY=         -55003.0952 XXZZ=        -106163.6612 YYZZ=         -99812.0333
 XXYZ=         -40867.7897 YYXZ=          61159.2060 ZZXY=          49445.3641
 N-N= 2.097586744455D+04 E-N=-5.903614608140D+04  KE= 6.765160882042D+03
   1 Symmetry operations used in ECPInt.
 ECPInt:  NShTT=  127765 NPrTT=  468030 LenC2=   96506 LenP2D=  220856.
 LDataN:  DoStor=T MaxTD1= 9 Len=  602
 D1PCM: PCM CHGder 1st derivatives, ID1Alg=3 FixD1E=F DoIter=F DoCFld=F I1PDM=0.
 Calling FoFJK, ICntrl=      2127 FMM=T ISym2X=0 I1Cent= 0 IOpClX= 0 NMat=1 NMatS=1 NMatT=0.
 Defaulting to unpruned grid for atomic number  74.
 Defaulting to unpruned grid for atomic number  74.
 Defaulting to unpruned grid for atomic number  74.
 Defaulting to unpruned grid for atomic number  74.
 Defaulting to unpruned grid for atomic number  74.
 Defaulting to unpruned grid for atomic number  74.
 Defaulting to unpruned grid for atomic number  74.
 Defaulting to unpruned grid for atomic number  74.
 Defaulting to unpruned grid for atomic number  74.
 Defaulting to unpruned grid for atomic number  74.
 Defaulting to unpruned grid for atomic number  74.
 Defaulting to unpruned grid for atomic number  74.
 Defaulting to unpruned grid for atomic number  74.
 Defaulting to unpruned grid for atomic number  74.
 Defaulting to unpruned grid for atomic number  74.
 Defaulting to unpruned grid for atomic number  74.
 Defaulting to unpruned grid for atomic number  74.
 Defaulting to unpruned grid for atomic number  74.
 Defaulting to unpruned grid for atomic number  74.
 Defaulting to unpruned grid for atomic number  74.
 Defaulting to unpruned grid for atomic number  74.
 Defaulting to unpruned grid for atomic number  74.
 Defaulting to unpruned grid for atomic number  74.
 Defaulting to unpruned grid for atomic number  74.
 Defaulting to unpruned grid for atomic number  74.
 Defaulting to unpruned grid for atomic number  74.
 Defaulting to unpruned grid for atomic number  74.
 Defaulting to unpruned grid for atomic number  74.
 Defaulting to unpruned grid for atomic number  74.
 Defaulting to unpruned grid for atomic number  74.
 Defaulting to unpruned grid for atomic number  74.
 Defaulting to unpruned grid for atomic number  74.
 Defaulting to unpruned grid for atomic number  74.
 Defaulting to unpruned grid for atomic number  74.
 Defaulting to unpruned grid for atomic number  74.
 Defaulting to unpruned grid for atomic number  74.
 Defaulting to unpruned grid for atomic number  74.
 Defaulting to unpruned grid for atomic number  74.
 Defaulting to unpruned grid for atomic number  74.
 Defaulting to unpruned grid for atomic number  74.
 Defaulting to unpruned grid for atomic number  74.
 Defaulting to unpruned grid for atomic number  74.
 Defaulting to unpruned grid for atomic number  74.
 Defaulting to unpruned grid for atomic number  74.
 Defaulting to unpruned grid for atomic number  74.
 Defaulting to unpruned grid for atomic number  74.
 Defaulting to unpruned grid for atomic number  74.
 Defaulting to unpruned grid for atomic number  74.
 Defaulting to unpruned grid for atomic number  74.
 Defaulting to unpruned grid for atomic number  74.
 Defaulting to unpruned grid for atomic number  74.
 Defaulting to unpruned grid for atomic number  74.
 Defaulting to unpruned grid for atomic number  74.
 Defaulting to unpruned grid for atomic number  74.
 Defaulting to unpruned grid for atomic number  74.
 Defaulting to unpruned grid for atomic number  74.
 -------------------------------------------------------------------
 Center     Atomic                   Forces (Hartrees/Bohr)
 Number     Number              X              Y              Z
 -------------------------------------------------------------------
      1       17          -0.003318069    0.008405321    0.002597030
      2        6          -0.001528078   -0.000747402   -0.001819310
      3        6          -0.000969722   -0.001899441    0.003499900
      4        6           0.001341333    0.001957551    0.000598658
      5        6           0.000840571   -0.000109375    0.001321439
      6        6          -0.000041289   -0.000298671    0.000873144
      7        6          -0.001005262   -0.001318220    0.000416924
      8        1          -0.000124195    0.000154970   -0.000168417
      9        1          -0.000281000   -0.000119127   -0.000037727
     10        1          -0.000057840   -0.000349294    0.000176189
     11        1           0.000109252   -0.000099022    0.000107743
     12        1           0.000202579    0.000002398    0.000140656
     13        6           0.007547689    0.010959380   -0.007417229
     14        6          -0.001532019   -0.017314199   -0.000141098
     15        1          -0.001169510    0.000546932    0.000179364
     16        1           0.000195567    0.000451758    0.000406817
     17        1          -0.001493782    0.000920284   -0.000800437
     18        8          -0.003258224    0.000463316    0.000832772
     19        8           0.003121964   -0.000765542    0.000967306
     20        8           0.002559760   -0.002919566   -0.000539308
     21        8          -0.002286706    0.002253397   -0.000980682
     22       74           0.001634070    0.010216834   -0.009517450
     23       74          -0.002444495   -0.010044418   -0.009813551
     24       74           0.006597457    0.008376440    0.009845473
     25       74          -0.006998198   -0.007118403    0.009890052
     26       74           0.008070819   -0.007588583   -0.010736944
     27       74          -0.008052552    0.007991006   -0.010368780
     28       74          -0.011425161    0.003021177    0.010661226
     29       74           0.010705113   -0.001786342    0.010554541
     30        8          -0.000525071   -0.002713296    0.003161255
     31        8           0.000233942    0.003000787    0.003152169
     32        8          -0.002282666   -0.001983795   -0.003117874
     33        8           0.002227808    0.001847188   -0.003198032
     34        8          -0.001031938   -0.000692211    0.003148237
     35        8           0.001395646    0.000131456    0.003341611
     36        8           0.000685711   -0.001491198   -0.003143947
     37        8          -0.000311898    0.001256595   -0.003290087
     38        8          -0.004422503   -0.001846210   -0.001232760
     39        8           0.004265176    0.001756946   -0.001238000
     40        8           0.002113795   -0.005975611    0.000890373
     41        8          -0.001029913    0.004684227    0.001227805
     42        8          -0.001971968   -0.002634654    0.001380326
     43        8           0.002348004    0.002465205    0.001074537
     44        8          -0.000339451   -0.003565218   -0.000627587
     45        8           0.000887859    0.003280741   -0.001323670
     46        8          -0.002680447    0.002680874    0.003200565
     47        8           0.002753094   -0.002238105    0.003279213
     48        8           0.004003425   -0.000687072   -0.003511109
     49        8          -0.003554016    0.000446090   -0.003266022
     50       74           0.014165046    0.004738804    0.002956201
     51       74          -0.014373040   -0.003723574    0.003238478
     52       74          -0.005607423    0.015530022   -0.003214416
     53       74           0.004741072   -0.014130141   -0.002793151
     54        8          -0.000597510    0.001470827    0.002033368
     55        8           0.000735051   -0.001500941    0.001930604
     56        8           0.001684719   -0.000180409   -0.002137496
     57        8          -0.001318118   -0.000522644   -0.001912354
     58        8           0.000243208   -0.002391035    0.001061392
     59        8           0.000450603    0.002177766    0.001353809
     60        8          -0.001428031   -0.001681065   -0.001445343
     61        8           0.001580153    0.001368014   -0.001392323
     62        8          -0.001152715    0.001943557    0.000734115
     63        8           0.001064329   -0.002446064    0.000458166
     64        8           0.002249976   -0.000178822   -0.001005352
     65        8          -0.002379384   -0.000227001   -0.000798383
     66        8          -0.026235339   -0.004821249    0.016676030
     67        8           0.026577331    0.005623587    0.016695790
     68        8           0.011093010   -0.025282913   -0.016804462
     69        8          -0.010862817    0.024163608   -0.017120806
     70       19           0.000215371   -0.000967772   -0.000655363
     71       19           0.000895130    0.000098054    0.000749837
     72       19          -0.000989233   -0.000373907    0.000595633
     73       23          -0.000456051    0.000347398    0.000160721
 -------------------------------------------------------------------
 Cartesian Forces:  Max     0.026577331 RMS     0.006033756

 GradGradGradGradGradGradGradGradGradGradGradGradGradGradGradGradGradGrad
 Berny optimization.
 Search for a local minimum.
 Step number   1 out of a maximum of    2
 All quantities printed in internal units (Hartrees-Bohrs-Radians)
 Second derivative matrix not updated -- first step.
 ITU=  0
     Eigenvalues ---   -0.00000   0.00000   0.00000   0.00010   0.00093
     Eigenvalues ---    0.00095   0.00256   0.00544   0.00641   0.01642
     Eigenvalues ---    0.01948   0.02903   0.02928   0.03209   0.03428
     Eigenvalues ---    0.03450   0.03723   0.03732   0.04159   0.04500
     Eigenvalues ---    0.04604   0.04614   0.04641   0.04842   0.04854
     Eigenvalues ---    0.04994   0.05357   0.05571   0.05598   0.06370
     Eigenvalues ---    0.06410   0.06533   0.06783   0.06862   0.07047
     Eigenvalues ---    0.07303   0.07389   0.07603   0.08365   0.08389
     Eigenvalues ---    0.08720   0.08755   0.08905   0.08947   0.09741
     Eigenvalues ---    0.09960   0.10108   0.10420   0.10467   0.10551
     Eigenvalues ---    0.10821   0.10897   0.11575   0.11670   0.12057
     Eigenvalues ---    0.12092   0.12174   0.12542   0.12558   0.12667
     Eigenvalues ---    0.12705   0.12787   0.12841   0.13097   0.13138
     Eigenvalues ---    0.13825   0.13985   0.14326   0.14546   0.14739
     Eigenvalues ---    0.16892   0.16929   0.17093   0.17153   0.17591
     Eigenvalues ---    0.17684   0.18575   0.19852   0.20004   0.20253
     Eigenvalues ---    0.20903   0.21086   0.21991   0.22054   0.22137
     Eigenvalues ---    0.22594   0.23171   0.23393   0.23965   0.24002
     Eigenvalues ---    0.24623   0.24758   0.24948   0.25613   0.26182
     Eigenvalues ---    0.26338   0.26545   0.27622   0.27709   0.27944
     Eigenvalues ---    0.28330   0.28369   0.28898   0.29640   0.29963
     Eigenvalues ---    0.30553   0.30659   0.30694   0.30759   0.30804
     Eigenvalues ---    0.30989   0.31234   0.31429   0.31587   0.32404
     Eigenvalues ---    0.32582   0.32620   0.32729   0.32918   0.33475
     Eigenvalues ---    0.33567   0.35086   0.35572   0.35884   0.36893
     Eigenvalues ---    0.37501   0.37670   0.37808   0.38332   0.38601
     Eigenvalues ---    0.38912   0.39262   0.40240   0.40296   0.41219
     Eigenvalues ---    0.42298   0.42331   0.43592   0.44202   0.44854
     Eigenvalues ---    0.45400   0.45628   0.45966   0.47963   0.48407
     Eigenvalues ---    0.48593   0.48937   0.49028   0.49721   0.49756
     Eigenvalues ---    0.50090   0.50856   0.51380   0.51972   0.52410
     Eigenvalues ---    0.53167   0.53833   0.55980   0.58657   0.64484
     Eigenvalues ---    0.67525   0.76679   0.81529   0.82748   0.96928
     Eigenvalues ---    0.97267   0.98798   0.99337   1.01726   1.04476
     Eigenvalues ---    1.07370   1.11255   1.11784   1.12303   1.15641
     Eigenvalues ---    1.18948   1.19418   1.20491   1.22219   1.22669
     Eigenvalues ---    1.22848   1.26342   1.26658   1.26872   1.27194
     Eigenvalues ---    1.27652   1.29223   1.29542   1.45204   1.45619
     Eigenvalues ---    1.45740   1.48107   1.51493   1.51830   1.52146
     Eigenvalues ---    1.52736   1.55788   1.55816   1.57206   1.58581
     Eigenvalues ---    1.58707   1.59428   1.61799   1.64395   1.73936
     Eigenvalues ---    1.84991   1.88254   1.91967   1.92871   1.93823
     Eigenvalues ---    2.02645   2.07985   3.22941
 Eigenvalue     1 is  -1.11D-16 should be greater than     0.000000 Eigenvector:
                          Y11       Y12       Y6        Y10       Y7
   1                    0.17433   0.17433   0.17433   0.17433   0.17433
                          Y5        Y2        Y4        Y8        Y3
   1                    0.17433   0.17433   0.17433   0.17433   0.17433
 Eigenvalue     2 is   2.81D-07 Eigenvector:
                          Y16       X16       X11       Y11       Y15
   1                    0.31667  -0.27116   0.26600  -0.24511   0.23692
                          Y14       X14       Y17       Y13       Z11
   1                    0.23107  -0.19132   0.18689   0.18645  -0.18551
 Eigenvalue     3 is   2.67D-06 Eigenvector:
                          X9        X10       Y12       Y8        X12
   1                    0.33640   0.29443   0.26865   0.25035  -0.24990
                          Y9        X15       Y10       X17       X8
   1                   -0.24399   0.22883  -0.22558  -0.21011  -0.20936
 Quadratic step=3.055D+01 exceeds max=3.000D-01 adjusted using Lamda=-1.310D-02.
 Angle between NR and scaled steps=  38.51 degrees.
 Angle between quadratic step and forces=  65.85 degrees.
 Linear search not attempted -- first point.
 B after Tr=    -0.000515    0.007194    0.001430
         Rot=    1.000000   -0.000140    0.000011    0.000047 Ang=  -0.02 deg.
 Variable       Old X    -DE/DX   Delta X   Delta X   Delta X     New X
                                 (Linear)    (Quad)   (Total)
    X1      -18.21917  -0.00332   0.00000  -0.00326  -0.00276 -18.22192
    Y1       15.62549   0.00841   0.00000   0.00842   0.01173  15.63721
    Z1       19.91581   0.00260   0.00000   0.00271   0.00812  19.92393
    X2      -15.78374  -0.00153   0.00000  -0.00897  -0.00924 -15.79298
    Y2        8.04731  -0.00075   0.00000  -0.01473  -0.01253   8.03478
    Z2       23.07452  -0.00182   0.00000  -0.00793  -0.00460  23.06992
    X3      -17.28577  -0.00097   0.00000  -0.00040  -0.00069 -17.28646
    Y3        7.43646  -0.00190   0.00000  -0.02489  -0.02196   7.41449
    Z3       20.96577   0.00350   0.00000  -0.00781  -0.00469  20.96108
    X4      -19.01285   0.00134   0.00000  -0.00962  -0.01010 -19.02295
    Y4        5.42779   0.00196   0.00000  -0.00873  -0.00571   5.42208
    Z4       21.19592   0.00060   0.00000   0.01556   0.01809  21.21401
    X5      -19.28848   0.00084   0.00000  -0.00518  -0.00583 -19.29431
    Y5        4.12824  -0.00011   0.00000  -0.00413  -0.00172   4.12652
    Z5       23.46381   0.00132   0.00000   0.02162   0.02378  23.48759
    X6      -17.81820  -0.00004   0.00000  -0.00284  -0.00348 -17.82168
    Y6        4.78780  -0.00030   0.00000  -0.00361  -0.00192   4.78588
    Z6       25.55169   0.00087   0.00000   0.01789   0.02027  25.57196
    X7      -16.05042  -0.00101   0.00000  -0.00722  -0.00767 -16.05809
    Y7        6.73646  -0.00132   0.00000  -0.00374  -0.00215   6.73431
    Z7       25.33875   0.00042   0.00000   0.00241   0.00537  25.34412
    X8      -14.38961  -0.00012   0.00000  -0.00829  -0.00842 -14.39803
    Y8        9.56436   0.00015   0.00000  -0.01488  -0.01277   9.55159
    Z8       22.94672  -0.00017   0.00000  -0.01462  -0.01083  22.93589
    X9      -20.16921  -0.00028   0.00000  -0.01373  -0.01422 -20.18343
    Y9        4.91096  -0.00012   0.00000  -0.01423  -0.01065   4.90031
    Z9       19.56295  -0.00004   0.00000   0.01930   0.02166  19.58461
   X10      -20.65734  -0.00006   0.00000  -0.00422  -0.00501 -20.66235
   Y10        2.58886  -0.00035   0.00000  -0.00540  -0.00291   2.58596
   Z10       23.60419   0.00018   0.00000   0.02476   0.02646  23.63064
   X11      -18.02859   0.00011   0.00000   0.00374   0.00298 -18.02561
   Y11        3.76820  -0.00010   0.00000  -0.00106   0.00014   3.76835
   Z11       27.33366   0.00011   0.00000   0.01983   0.02192  27.35558
   X12      -14.87447   0.00020   0.00000  -0.00210  -0.00253 -14.87700
   Y12        7.24338   0.00000   0.00000   0.00392   0.00494   7.24832
   Z12       26.95922   0.00014   0.00000  -0.00267   0.00047  26.95968
   X13      -17.18006   0.00755   0.00000   0.03604   0.03594 -17.14413
   Y13        8.84024   0.01096   0.00000  -0.06293  -0.05934   8.78090
   Z13       18.58508  -0.00742   0.00000  -0.04259  -0.03908  18.54601
   X14      -15.92121  -0.00153   0.00000   0.07377   0.07387 -15.84734
   Y14       11.02094  -0.01731   0.00000  -0.11603  -0.11244  10.90850
   Z14       18.18322  -0.00014   0.00000  -0.06300  -0.05886  18.12436
   X15      -18.29307  -0.00117   0.00000  -0.00566  -0.00580 -18.29888
   Y15        8.03481   0.00055   0.00000  -0.03997  -0.03584   7.99897
   Z15       17.03551   0.00018   0.00000  -0.02368  -0.02042  17.01510
   X16      -15.96949   0.00020   0.00000   0.06656   0.06679 -15.90271
   Y16       11.93614   0.00045   0.00000  -0.10036  -0.09625  11.83989
   Z16       16.33701   0.00041   0.00000  -0.05435  -0.04996  16.28705
   X17      -14.72482  -0.00149   0.00000   0.03949   0.03964 -14.68517
   Y17       11.89450   0.00092   0.00000  -0.08343  -0.08036  11.81414
   Z17       19.61313  -0.00080   0.00000  -0.05560  -0.05118  19.56194
   X18       -1.84306  -0.00326   0.00000  -0.01881  -0.01995  -1.86302
   Y18       -3.41359   0.00046   0.00000   0.00223   0.00564  -3.40795
   Z18       14.10320   0.00083   0.00000   0.00786   0.00829  14.11149
   X19      -15.84437   0.00312   0.00000   0.01302   0.01197 -15.83240
   Y19       -2.51498  -0.00077   0.00000   0.00902   0.01373  -2.50125
   Z19       14.10144   0.00097   0.00000   0.01117   0.01155  14.11299
   X20      -13.25796   0.00256   0.00000   0.00997   0.00925 -13.24871
   Y20        2.54044  -0.00292   0.00000  -0.01094  -0.00806   2.53238
   Z20       19.79715  -0.00054   0.00000  -0.00235  -0.00051  19.79665
   X21       -4.41146  -0.00229   0.00000  -0.00958  -0.01131  -4.42277
   Y21       -8.31168   0.00225   0.00000   0.01711   0.01913  -8.29256
   Z21       19.94632  -0.00098   0.00000  -0.01094  -0.01194  19.93438
   X22       -6.41566   0.00163   0.00000  -0.00732  -0.00798  -6.42364
   Y22        1.31515   0.01022   0.00000   0.01998   0.02433   1.33948
   Z22       12.25272  -0.00952   0.00000  -0.00513  -0.00347  12.24925
   X23      -11.31780  -0.00244   0.00000   0.00351   0.00205 -11.31575
   Y23       -7.22931  -0.01004   0.00000  -0.00418   0.00059  -7.22872
   Z23       12.39629  -0.00981   0.00000  -0.00499  -0.00584  12.39045
   X24       -6.81065   0.00660   0.00000   0.01481   0.01397  -6.79668
   Y24        1.64562   0.00838   0.00000   0.00258   0.00436   1.64998
   Z24       21.56468   0.00985   0.00000   0.00969   0.01143  21.57612
   X25      -10.89049  -0.00700   0.00000  -0.01601  -0.01769 -10.90817
   Y25       -7.31559  -0.00712   0.00000   0.00343   0.00555  -7.31003
   Z25       21.69654   0.00989   0.00000   0.00527   0.00441  21.70095
   X26       -4.59656   0.00807   0.00000  -0.00525  -0.00649  -4.60305
   Y26       -4.89543  -0.00759   0.00000  -0.00582  -0.00158  -4.89701
   Z26       12.08986  -0.01074   0.00000  -0.00817  -0.00822  12.08164
   X27      -13.09437  -0.00805   0.00000  -0.00243  -0.00331 -13.09768
   Y27       -1.01516   0.00799   0.00000   0.02055   0.02560  -0.98956
   Z27       12.02831  -0.01037   0.00000  -0.00625  -0.00538  12.02293
   X28      -12.86581  -0.01143   0.00000  -0.00852  -0.00956 -12.87538
   Y28       -0.48009   0.00302   0.00000  -0.00419  -0.00193  -0.48202
   Z28       21.85810   0.01066   0.00000   0.01058   0.01159  21.86968
   X29       -4.81114   0.01071   0.00000   0.00780   0.00632  -4.80481
   Y29       -5.18142  -0.00179   0.00000   0.01017   0.01166  -5.16976
   Z29       21.93414   0.01055   0.00000   0.00654   0.00641  21.94055
   X30       -5.97061  -0.00053   0.00000   0.01005   0.00964  -5.96096
   Y30        3.55453  -0.00271   0.00000   0.01188   0.01682   3.57135
   Z30       10.02570   0.00316   0.00000   0.00140   0.00370  10.02939
   X31      -11.57246   0.00023   0.00000  -0.01042  -0.01205 -11.58451
   Y31       -9.59149   0.00300   0.00000   0.00253   0.00793  -9.58356
   Z31       10.23732   0.00315   0.00000   0.00068  -0.00083  10.23649
   X32       -5.05616  -0.00228   0.00000   0.00259   0.00185  -5.05431
   Y32        3.23095  -0.00198   0.00000   0.00799   0.00900   3.23994
   Z32       23.73844  -0.00312   0.00000   0.00410   0.00633  23.74477
   X33      -12.62556   0.00223   0.00000  -0.00348  -0.00535 -12.63091
   Y33       -8.83249   0.00185   0.00000  -0.00405  -0.00239  -8.83488
   Z33       23.92945  -0.00320   0.00000  -0.00097  -0.00230  23.92715
   X34       -5.02742  -0.00103   0.00000  -0.01313  -0.01404  -5.04145
   Y34       -1.73086  -0.00069   0.00000   0.00320   0.00790  -1.72296
   Z34       10.56126   0.00315   0.00000   0.01103   0.01187  10.57312
   X35      -12.65760   0.00140   0.00000   0.00810   0.00695 -12.65065
   Y35       -4.29241   0.00013   0.00000   0.01053   0.01592  -4.27650
   Z35       10.62089   0.00334   0.00000   0.01342   0.01337  10.63426
   X36      -10.01204   0.00069   0.00000   0.00631   0.00537 -10.00667
   Y36        1.03523  -0.00149   0.00000  -0.01126  -0.00968   1.02555
   Z36       23.35427  -0.00314   0.00000  -0.00593  -0.00443  23.34983
   X37       -7.65485  -0.00031   0.00000  -0.00545  -0.00710  -7.66195
   Y37       -6.68486   0.00126   0.00000   0.01362   0.01496  -6.66990
   Z37       23.44896  -0.00329   0.00000  -0.01155  -0.01216  23.43680
   X38        0.60692  -0.00442   0.00000   0.00349   0.00258   0.60950
   Y38       -0.05558  -0.00185   0.00000  -0.00421  -0.00198  -0.05756
   Z38       17.52877  -0.00123   0.00000  -0.00178  -0.00036  17.52841
   X39      -18.31193   0.00427   0.00000  -0.00755  -0.00898 -18.32091
   Y39       -5.74123   0.00176   0.00000   0.01313   0.01709  -5.72414
   Z39       17.61670  -0.00124   0.00000  -0.00079  -0.00137  17.61533
   X40      -11.99833   0.00211   0.00000   0.00259   0.00232 -11.99601
   Y40        6.47454  -0.00598   0.00000   0.00631   0.01003   6.48457
   Z40       16.37631   0.00089   0.00000   0.00917   0.01216  16.38847
   X41       -5.68327  -0.00103   0.00000   0.00369   0.00166  -5.68160
   Y41      -12.27488   0.00468   0.00000   0.00499   0.00809 -12.26679
   Z41       16.52439   0.00123   0.00000   0.00044  -0.00170  16.52269
   X42       -3.35071  -0.00197   0.00000  -0.01317  -0.01387  -3.36458
   Y42        1.40005  -0.00263   0.00000  -0.00170   0.00184   1.40189
   Z42       14.12327   0.00138   0.00000   0.01175   0.01350  14.13676
   X43      -14.35569   0.00235   0.00000   0.00988   0.00837 -14.34732
   Y43       -7.33795   0.00247   0.00000   0.01316   0.01769  -7.32026
   Z43       14.25234   0.00107   0.00000   0.01044   0.00950  14.26184
   X44       -8.47742  -0.00034   0.00000   0.00454   0.00398  -8.47344
   Y44        4.14697  -0.00357   0.00000  -0.01242  -0.00996   4.13701
   Z44       19.69994  -0.00063   0.00000  -0.00194   0.00046  19.70040
   X45       -9.20649   0.00089   0.00000  -0.00555  -0.00742  -9.21391
   Y45       -9.89486   0.00328   0.00000   0.01845   0.02093  -9.87393
   Z45       19.89770  -0.00132   0.00000  -0.01131  -0.01285  19.88485
   X46       -3.02911  -0.00268   0.00000  -0.00454  -0.00590  -3.03501
   Y46       -6.66815   0.00268   0.00000   0.00769   0.01239  -6.65576
   Z46        9.91625   0.00320   0.00000  -0.00589  -0.00639   9.90986
   X47      -14.75001   0.00275   0.00000  -0.00683  -0.00752 -14.75753
   Y47        0.51407  -0.00224   0.00000   0.00468   0.01051   0.52458
   Z47        9.77043   0.00328   0.00000  -0.00116   0.00009   9.77052
   X48      -15.16882   0.00400   0.00000   0.00089  -0.00018 -15.16901
   Y48       -0.30713  -0.00069   0.00000   0.00436   0.00621  -0.30091
   Z48       24.08665  -0.00351   0.00000   0.00650   0.00750  24.09415
   X49       -2.48291  -0.00355   0.00000  -0.00116  -0.00271  -2.48562
   Y49       -5.41132   0.00045   0.00000  -0.00165  -0.00099  -5.41232
   Z49       24.13274  -0.00327   0.00000   0.00243   0.00229  24.13503
   X50       -2.34113   0.01417   0.00000   0.00560   0.00462  -2.33651
   Y50       -1.02990   0.00474   0.00000   0.00611   0.00883  -1.02107
   Z50       16.70361   0.00296   0.00000   0.01191   0.01300  16.71661
   X51      -15.36335  -0.01437   0.00000  -0.00998  -0.01131 -15.37466
   Y51       -4.79270  -0.00372   0.00000   0.00496   0.00888  -4.78382
   Z51       16.76850   0.00324   0.00000   0.01324   0.01298  16.78149
   X52      -11.09822  -0.00561   0.00000  -0.00170  -0.00226 -11.10048
   Y52        3.50430   0.01553   0.00000   0.01360   0.01704   3.52135
   Z52       17.09073  -0.00321   0.00000  -0.00644  -0.00427  17.08646
   X53       -6.59889   0.00474   0.00000  -0.00096  -0.00272  -6.60161
   Y53       -9.29955  -0.01413   0.00000  -0.00230   0.00066  -9.29889
   Z53       17.31520  -0.00279   0.00000  -0.01281  -0.01414  17.30107
   X54       -7.96138  -0.00060   0.00000  -0.00236  -0.00367  -7.96506
   Y54       -5.89019   0.00147   0.00000  -0.00455   0.00017  -5.89002
   Z54       11.47504   0.00203   0.00000  -0.00825  -0.00865  11.46639
   X55       -9.72121   0.00074   0.00000  -0.00424  -0.00501  -9.72623
   Y55       -0.11660  -0.00150   0.00000   0.02097   0.02588  -0.09071
   Z55       11.37367   0.00193   0.00000  -0.00697  -0.00578  11.36789
   X56      -11.65246   0.00168   0.00000  -0.01133  -0.01269 -11.66515
   Y56       -3.78640  -0.00018   0.00000  -0.00262  -0.00065  -3.78704
   Z56       22.51279  -0.00214   0.00000   0.00893   0.00904  22.52182
   X57       -5.98883  -0.00132   0.00000   0.01137   0.01018  -5.97864
   Y57       -1.87632  -0.00052   0.00000   0.00691   0.00835  -1.86798
   Z57       22.51720  -0.00191   0.00000   0.00997   0.01074  22.52794
   X58       -8.21444   0.00024   0.00000  -0.00423  -0.00480  -8.21924
   Y58        2.98424  -0.00239   0.00000   0.01638   0.02019   3.00443
   Z58       14.81025   0.00106   0.00000  -0.00511  -0.00302  14.80723
   X59       -9.46560   0.00045   0.00000   0.00206   0.00039  -9.46521
   Y59       -8.85982   0.00218   0.00000  -0.00462  -0.00074  -8.86055
   Z59       14.97512   0.00135   0.00000  -0.00781  -0.00907  14.96605
   X60       -4.36927  -0.00143   0.00000   0.01217   0.01133  -4.35794
   Y60        1.06103  -0.00168   0.00000   0.00475   0.00701   1.06804
   Z60       19.03953  -0.00145   0.00000   0.00981   0.01144  19.05097
   X61      -13.31211   0.00158   0.00000  -0.01491  -0.01649 -13.32859
   Y61       -6.83522   0.00137   0.00000   0.00340   0.00647  -6.82875
   Z61       19.14467  -0.00139   0.00000   0.00775   0.00697  19.15164
   X62       -4.85993  -0.00115   0.00000  -0.00227  -0.00380  -4.86373
   Y62       -7.39150   0.00194   0.00000  -0.00287   0.00061  -7.39088
   Z62       14.86539   0.00073   0.00000  -0.01089  -0.01164  14.85375
   X63      -12.85711   0.00106   0.00000  -0.00214  -0.00284 -12.85995
   Y63        1.49656  -0.00245   0.00000   0.01496   0.01922   1.51578
   Z63       14.74403   0.00046   0.00000  -0.00697  -0.00540  14.73863
   X64      -14.77491   0.00225   0.00000  -0.00884  -0.00999 -14.78490
   Y64       -2.22813  -0.00018   0.00000   0.00182   0.00501  -2.22312
   Z64       19.16957  -0.00101   0.00000   0.01169   0.01217  19.18174
   X65       -2.92769  -0.00238   0.00000   0.00558   0.00431  -2.92339
   Y65       -3.54878  -0.00023   0.00000   0.00639   0.00848  -3.54030
   Z65       19.16519  -0.00080   0.00000   0.00886   0.00923  19.17442
   X66       -6.33300  -0.02624   0.00000  -0.04939  -0.05044  -6.38344
   Y66       -2.19617  -0.00482   0.00000  -0.00081   0.00272  -2.19345
   Z66       15.14319   0.01668   0.00000   0.02752   0.02819  15.17138
   X67      -11.35971   0.02658   0.00000   0.04376   0.04256 -11.31715
   Y67       -3.71148   0.00562   0.00000   0.01589   0.01987  -3.69161
   Z67       15.18177   0.01670   0.00000   0.02894   0.02908  15.21085
   X68       -9.65464   0.01109   0.00000   0.02043   0.01946  -9.63518
   Y68       -0.40138  -0.02528   0.00000  -0.03832  -0.03549  -0.43687
   Z68       18.78799  -0.01680   0.00000  -0.02581  -0.02472  18.76327
   X69       -8.00696  -0.01086   0.00000  -0.02277  -0.02420  -8.03116
   Y69       -5.38855   0.02416   0.00000   0.04580   0.04847  -5.34008
   Z69       18.85228  -0.01712   0.00000  -0.02848  -0.02873  18.82356
   X70       -6.07621   0.00022   0.00000  -0.00140  -0.00323  -6.07944
   Y70      -11.59309  -0.00097   0.00000  -0.00453   0.00024 -11.59286
   Z70       10.67340  -0.00066   0.00000  -0.00960  -0.01155  10.66185
   X71       -0.22841   0.00090   0.00000   0.01139   0.01037  -0.21804
   Y71        0.06307   0.00010   0.00000   0.00354   0.00422   0.06729
   Z71       23.28755   0.00075   0.00000   0.00937   0.01081  23.29836
   X72      -17.54336  -0.00099   0.00000  -0.01291  -0.01444 -17.55780
   Y72       -5.33089  -0.00037   0.00000   0.00155   0.00380  -5.32709
   Z72       23.47311   0.00060   0.00000   0.00933   0.00887  23.48198
   X73       -8.84243  -0.00046   0.00000  -0.00252  -0.00368  -8.84611
   Y73       -2.91822   0.00035   0.00000   0.00587   0.00913  -2.90910
   Z73       16.98860   0.00016   0.00000   0.00079   0.00121  16.98982
         Item               Value     Threshold  Converged?
 Maximum Force            0.026577     0.000450     NO 
 RMS     Force            0.006034     0.000300     NO 
 Maximum Displacement     0.112444     0.001800     NO 
 RMS     Displacement     0.020140     0.001200     NO 
 Predicted change in Energy=-6.010699D-03
 GradGradGradGradGradGradGradGradGradGradGradGradGradGradGradGradGradGrad

 Unable to Open any file for archive entry.
 1\1\GINC-X11P1N2\Force\RwB97XD\def2SVP\C8H8Cl1K3O40V1W12(1-)\MAYUMIAO\
 02-Jun-2024\0\\# def2svp wb97xd scrf=(smd,solvent=acetonitrile) g09def
 ault scf=(xqc,maxcycle=64) force guess=read nosymm\\Title Card\\-1,1\C
 l,-9.64116809,8.26865072,10.53899131\C,-8.35239295,4.258451,12.2105090
 1\C,-9.14723475,3.93520438,11.09460695\C,-10.06116732,2.87226322,11.21
 639685\C,-10.20702368,2.18457119,12.41651084\C,-9.42898416,2.53359622,
 13.52137101\C,-8.49351452,3.56478276,13.40868959\H,-7.61465453,5.06124
 226,12.14287954\H,-10.67308699,2.5987663,10.35226883\H,-10.9313923,1.3
 6996713,12.49079677\H,-9.54031708,1.99404616,14.46435205\H,-7.87123046
 ,3.83302937,14.2662044\C,-9.09129834,4.67805312,9.83480181\C,-8.425140
 89,5.83203114,9.62214343\H,-9.68027829,4.25184027,9.0148049\H,-8.45069
 202,6.31633246,8.64517426\H,-7.7920383,6.29429622,10.37881983\O,-0.975
 30683,-1.80639521,7.46309152\O,-8.38447914,-1.3308703,7.46216081\O,-7.
 01581175,1.34434108,10.47620203\O,-2.33444611,-4.39835257,10.55513732\
 W,-3.39502305,0.69594513,6.48385972\W,-5.9891242,-3.82558828,6.5598322
 5\W,-3.60404232,0.87082365,11.41153946\W,-5.76299685,-3.87124108,11.48
 13163\W,-2.43239469,-2.59055205,6.39767938\W,-6.92924306,-0.53719765,6
 .36510895\W,-6.80829596,-0.25405506,11.56680653\W,-2.54594314,-2.74188
 937,11.60704524\O,-3.15950871,1.88097376,5.30537063\O,-6.12388263,-5.0
 7559856,5.41735863\O,-2.67560661,1.70974388,12.56184263\O,-6.6811584,-
 4.67395262,12.66292061\O,-2.6603952,-0.91593144,5.58877582\O,-6.698113
 87,-2.27144706,5.62033199\O,-5.29814412,0.54781898,12.35854543\O,-4.05
 077082,-3.53747707,12.40865473\O,0.32116661,-0.02941248,9.27582515\O,-
 9.69025395,-3.03812841,9.32235752\O,-6.34924089,3.42618107,8.66597101\
 O,-3.00745457,-6.4955853,8.74432859\O,-1.77311845,0.74087552,7.4737106
 5\O,-7.59670409,-3.88307633,7.54201438\O,-4.48605578,2.19448115,10.424
 75917\O,-4.87186243,-5.2361349,10.52941177\O,-1.60293839,-3.52863242,5
 .24745218\O,-7.80537156,0.27203179,5.17029082\O,-8.02699637,-0.1625238
 9,12.74610454\O,-1.31390146,-2.86354963,12.77049798\W,-1.23887462,-0.5
 4499813,8.83917018\W,-8.12993582,-2.53618952,8.8735093\W,-5.87292353,1
 .85439792,9.04402371\W,-3.49197975,-4.92110917,9.16281166\O,-4.2129822
 9,-3.11695269,6.07232877\O,-5.14424374,-0.06170111,6.01868536\O,-6.166
 21408,-2.00367427,11.91325378\O,-3.16915043,-0.99290743,11.91558674\O,
 -4.34689682,1.57919275,7.8372457\O,-5.00898208,-4.68841278,7.92449277\
 O,-2.31211823,0.56147421,10.07528384\O,-7.04446275,-3.61704198,10.1309
 2416\O,-2.57176667,-3.91141144,7.8664258\O,-6.80368748,0.7919445,7.802
 20433\O,-7.81854652,-1.17907525,10.14410064\O,-1.549269,-1.877933,10.1
 4178129\O,-3.35127874,-1.16216353,8.01343038\O,-6.01130091,-1.9640313,
 8.03384619\O,-5.10901375,-0.21240008,9.94217359\O,-4.23710288,-2.85149
 785,9.97619708\K,-3.21539204,-6.13480051,5.64812258\K,-0.12086693,0.03
 337375,12.32323876\K,-9.28354524,-2.82098333,12.42143432\V,-4.67921052
 ,-1.54425706,8.98998196\\Version=ES64L-G16RevC.01\HF=-7327.7019242\RMS
 D=4.490e-09\RMSF=6.034e-03\Dipole=9.9870901,-21.8881278,2.4276197\Quad
 rupole=-68.1731345,44.6130003,23.5601342,331.3467556,333.7185566,-354.
 1449119\PG=C01 [X(C8H8Cl1K3O40V1W12)]\\@
 The archive entry for this job was punched.


 ...THE PHYSICISTS HAVE MADE THEIR UNIVERSE, AND IF YOU DO NOT LIKE
 IT, YOU MUST MAKE YOUR OWN.
                               -- E. R. HARRISON IN "COSMOLOGY" (1980)
 Job cpu time:       0 days  9 hours  5 minutes 43.4 seconds.
 Elapsed time:       0 days  0 hours 10 minutes 20.2 seconds.
 File lengths (MBytes):  RWF=   1257 Int=      0 D2E=      0 Chk=    249 Scr=      1
 Normal termination of Gaussian 16 at Sun Jun  2 22:26:34 2024.
