 Entering Gaussian System, Link 0=g16
 Input=JOBS/59_A.gjf
 Output=JOBS/59_A.log
 Initial command:
 /data/app/gaussian/C01-avx2//g16/l1.exe "/tmp/Gau-693058.inp" -scrdir="/tmp/"
 Entering Link 1 = /data/app/gaussian/C01-avx2//g16/l1.exe PID=    693059.
  
 Copyright (c) 1988-2019, Gaussian, Inc.  All Rights Reserved.
  
 This is part of the Gaussian(R) 16 program.  It is based on
 the Gaussian(R) 09 system (copyright 2009, Gaussian, Inc.),
 the Gaussian(R) 03 system (copyright 2003, Gaussian, Inc.),
 the Gaussian(R) 98 system (copyright 1998, Gaussian, Inc.),
 the Gaussian(R) 94 system (copyright 1995, Gaussian, Inc.),
 the Gaussian 92(TM) system (copyright 1992, Gaussian, Inc.),
 the Gaussian 90(TM) system (copyright 1990, Gaussian, Inc.),
 the Gaussian 88(TM) system (copyright 1988, Gaussian, Inc.),
 the Gaussian 86(TM) system (copyright 1986, Carnegie Mellon
 University), and the Gaussian 82(TM) system (copyright 1983,
 Carnegie Mellon University). Gaussian is a federally registered
 trademark of Gaussian, Inc.
  
 This software contains proprietary and confidential information,
 including trade secrets, belonging to Gaussian, Inc.
  
 This software is provided under written license and may be
 used, copied, transmitted, or stored only in accord with that
 written license.
  
 The following legend is applicable only to US Government
 contracts under FAR:
  
                    RESTRICTED RIGHTS LEGEND
  
 Use, reproduction and disclosure by the US Government is
 subject to restrictions as set forth in subparagraphs (a)
 and (c) of the Commercial Computer Software - Restricted
 Rights clause in FAR 52.227-19.
  
 Gaussian, Inc.
 340 Quinnipiac St., Bldg. 40, Wallingford CT 06492
  
  
 ---------------------------------------------------------------
 Warning -- This program may not be used in any manner that
 competes with the business of Gaussian, Inc. or will provide
 assistance to any competitor of Gaussian, Inc.  The licensee
 of this program is prohibited from giving any competitor of
 Gaussian, Inc. access to this program.  By using this program,
 the user acknowledges that Gaussian, Inc. is engaged in the
 business of creating and licensing software in the field of
 computational chemistry and represents and warrants to the
 licensee that it is not a competitor of Gaussian, Inc. and that
 it will not use this program in any manner prohibited above.
 ---------------------------------------------------------------
  

 Cite this work as:
 Gaussian 16, Revision C.01,
 M. J. Frisch, G. W. Trucks, H. B. Schlegel, G. E. Scuseria, 
 M. A. Robb, J. R. Cheeseman, G. Scalmani, V. Barone, 
 G. A. Petersson, H. Nakatsuji, X. Li, M. Caricato, A. V. Marenich, 
 J. Bloino, B. G. Janesko, R. Gomperts, B. Mennucci, H. P. Hratchian, 
 J. V. Ortiz, A. F. Izmaylov, J. L. Sonnenberg, D. Williams-Young, 
 F. Ding, F. Lipparini, F. Egidi, J. Goings, B. Peng, A. Petrone, 
 T. Henderson, D. Ranasinghe, V. G. Zakrzewski, J. Gao, N. Rega, 
 G. Zheng, W. Liang, M. Hada, M. Ehara, K. Toyota, R. Fukuda, 
 J. Hasegawa, M. Ishida, T. Nakajima, Y. Honda, O. Kitao, H. Nakai, 
 T. Vreven, K. Throssell, J. A. Montgomery, Jr., J. E. Peralta, 
 F. Ogliaro, M. J. Bearpark, J. J. Heyd, E. N. Brothers, K. N. Kudin, 
 V. N. Staroverov, T. A. Keith, R. Kobayashi, J. Normand, 
 K. Raghavachari, A. P. Rendell, J. C. Burant, S. S. Iyengar, 
 J. Tomasi, M. Cossi, J. M. Millam, M. Klene, C. Adamo, R. Cammi, 
 J. W. Ochterski, R. L. Martin, K. Morokuma, O. Farkas, 
 J. B. Foresman, and D. J. Fox, Gaussian, Inc., Wallingford CT, 2019.
 
 ******************************************
 Gaussian 16:  ES64L-G16RevC.01  3-Jul-2019
                 2-Jun-2024 
 ******************************************
 %chk=a.chk
 %nprocshared=56
 Will use up to   56 processors via shared memory.
 %mem=96gb
 ----------------------------------------------------------------------
 # def2svp wb97xd scrf=(smd,solvent=acetonitrile) g09default scf=(xqc,m
 axcycle=64) force guess=read nosymm
 ----------------------------------------------------------------------
 1/10=7,30=1,38=1,158=3,167=1/1,3;
 2/12=2,15=1,17=6,18=5,40=1/2;
 3/5=43,7=101,11=2,25=1,27=10,30=1,70=32201,71=1,72=2,74=-58,75=-4,116=-2,158=3/1,2,3;
 4/5=1,60=-1/1;
 5/5=2,7=64,8=3,13=1,38=6,53=2,87=10/2,8;
 6/7=2,8=2,9=2,10=2,28=1,87=10/1;
 7/29=1,30=1,87=10/1,2,3,16;
 1/10=7,30=1,158=3,167=1/3;
 99//99;
 Using 2006 physical constants.
 ----------
 Title Card
 ----------
 Symbolic Z-matrix:
 Charge = -1 Multiplicity = 1
 17                   -9.6416    8.26814   10.53806 
 6                    -8.35433   4.26036   12.20969 
 6                    -9.14936   3.93635   11.09408 
 6                    -10.06335   2.87361   11.21673 
 6                    -10.20722   2.18514   12.41662 
 6                    -9.42705   2.53306   13.52034 
 6                    -8.49331   3.56581   13.40751 
 1                    -7.61856   5.06493   12.1425 
 1                    -10.67724   2.60128   10.35359 
 1                    -10.9323   1.37123   12.49192 
 1                    -9.53565   1.99188   14.46266 
 1                    -7.8712    3.83522   14.26477 
 6                    -9.09437   4.67962   9.83456 
 6                    -8.42691   5.83303   9.62289 
 1                    -9.68513   4.25495   9.01501 
 1                    -8.45424   6.32075   8.64781 
 1                    -7.79089   6.29148   10.37944 
 8                    -0.97536  -1.80739   7.46249 
 8                    -8.38356  -1.33039   7.4622 
 8                    -7.01508   1.34365   10.47694 
 8                    -2.33429  -4.39831   10.55513 
 74                   -3.3938    0.69722   6.48535 
 74                   -5.98935  -3.82692   6.56043 
 74                   -3.60262   0.87147   11.41047 
 74                   -5.76347  -3.87258   11.48075 
 74                   -2.4332   -2.59021   6.39631 
 74                   -6.92752  -0.53783   6.36392 
 74                   -6.80669  -0.2549    11.56824 
 74                   -2.54665  -2.74218   11.60803 
 8                    -3.15794   1.8831    5.30775 
 8                    -6.12445  -5.0768    5.41784 
 8                    -2.67441   1.71024   12.56092 
 8                    -6.68125  -4.67596   12.66232 
 8                    -2.66076  -0.91553   5.58867 
 8                    -6.69766  -2.27206   5.62037 
 8                    -5.2965    0.54728   12.35851 
 8                    -4.05107  -3.53806   12.40874 
 8                     0.32266  -0.03189   9.27533 
 8                    -9.69041  -3.03685   9.32175 
 8                    -6.35057   3.4253    8.66643 
 8                    -3.00623  -6.49563   8.74449 
 8                    -1.77203   0.74012   7.47404 
 8                    -7.59671  -3.88304   7.54238 
 8                    -4.48542   2.1944    10.42455 
 8                    -4.87159  -5.23654   10.52898 
 8                    -1.60383  -3.5276    5.24572 
 8                    -7.80363   0.27088   5.16875 
 8                    -8.02483  -0.16205   12.74792 
 8                    -1.31517  -2.8641    12.77213 
 74                   -1.2376   -0.54707   8.83934 
 74                   -8.12976  -2.53507   8.87345 
 74                   -5.87389   1.85369   9.04426 
 74                   -3.49096  -4.92116   9.16254 
 8                    -4.2134   -3.11758   6.07189 
 8                    -5.14329  -0.06117   6.01866 
 8                    -6.16616  -2.00471   11.91431 
 8                    -3.16832  -0.99299   11.91522 
 8                    -4.34633   1.57933   7.83806 
 8                    -5.00896  -4.68959   7.92429 
 8                    -2.31042   0.56118   10.07511 
 8                    -7.04483  -3.61742   10.1312 
 8                    -2.57206  -3.91175   7.86567 
 8                    -6.80315   0.79157   7.80204 
 8                    -7.81796  -1.17931   10.1451 
 8                    -1.54819  -1.87868   10.14234 
 8                    -3.3508   -1.16244   8.01369 
 8                    -6.01063  -1.96453   8.03388 
 8                    -5.10827  -0.21273   9.94216 
 8                    -4.23716  -2.85179   9.97622 
 19                   -3.21591  -6.13537   5.64825 
 19                   -0.12205   0.03054   12.32205 
 19                   -9.28379  -2.82047   12.42013 
 23                   -4.67878  -1.54459   8.99 
 

 GradGradGradGradGradGradGradGradGradGradGradGradGradGradGradGradGradGrad
 Berny optimization.
 Initialization pass.
 Trust Radius=3.00D-01 FncErr=1.00D-07 GrdErr=1.00D-07 EigMax=2.50D+02 EigMin=1.00D-04
 Number of steps in this run=      2 maximum allowed number of steps=      2.
 GradGradGradGradGradGradGradGradGradGradGradGradGradGradGradGradGradGrad

 Symmetry turned off by external request.
 Stoichiometry    C8H8ClK3O40VW12(1-)
 Framework group  C1[X(C8H8ClK3O40VW12)]
 Deg. of freedom   213
 Full point group                 C1      NOp   1
                          Input orientation:                          
 ---------------------------------------------------------------------
 Center     Atomic      Atomic             Coordinates (Angstroms)
 Number     Number       Type             X           Y           Z
 ---------------------------------------------------------------------
      1         17           0       -9.641604    8.268136   10.538064
      2          6           0       -8.354328    4.260364   12.209689
      3          6           0       -9.149363    3.936351   11.094077
      4          6           0      -10.063350    2.873608   11.216731
      5          6           0      -10.207221    2.185139   12.416620
      6          6           0       -9.427046    2.533064   13.520339
      7          6           0       -8.493312    3.565808   13.407510
      8          1           0       -7.618555    5.064931   12.142501
      9          1           0      -10.677239    2.601278   10.353585
     10          1           0      -10.932296    1.371234   12.491918
     11          1           0       -9.535652    1.991885   14.462661
     12          1           0       -7.871197    3.835221   14.264769
     13          6           0       -9.094368    4.679618    9.834559
     14          6           0       -8.426906    5.833035    9.622894
     15          1           0       -9.685127    4.254949    9.015013
     16          1           0       -8.454244    6.320752    8.647807
     17          1           0       -7.790890    6.291476   10.379438
     18          8           0       -0.975357   -1.807389    7.462494
     19          8           0       -8.383557   -1.330392    7.462198
     20          8           0       -7.015075    1.343649   10.476938
     21          8           0       -2.334290   -4.398309   10.555135
     22         74           0       -3.393799    0.697219    6.485352
     23         74           0       -5.989352   -3.826919    6.560432
     24         74           0       -3.602623    0.871466   11.410470
     25         74           0       -5.763466   -3.872580   11.480746
     26         74           0       -2.433203   -2.590205    6.396314
     27         74           0       -6.927524   -0.537834    6.363918
     28         74           0       -6.806685   -0.254902   11.568241
     29         74           0       -2.546650   -2.742185   11.608027
     30          8           0       -3.157936    1.883101    5.307745
     31          8           0       -6.124454   -5.076797    5.417842
     32          8           0       -2.674414    1.710239   12.560924
     33          8           0       -6.681251   -4.675958   12.662315
     34          8           0       -2.660756   -0.915528    5.588672
     35          8           0       -6.697661   -2.272057    5.620366
     36          8           0       -5.296497    0.547280   12.358511
     37          8           0       -4.051067   -3.538055   12.408742
     38          8           0        0.322658   -0.031892    9.275332
     39          8           0       -9.690413   -3.036846    9.321753
     40          8           0       -6.350566    3.425305    8.666433
     41          8           0       -3.006232   -6.495632    8.744488
     42          8           0       -1.772031    0.740118    7.474037
     43          8           0       -7.596709   -3.883043    7.542380
     44          8           0       -4.485422    2.194403   10.424545
     45          8           0       -4.871591   -5.236541   10.528981
     46          8           0       -1.603832   -3.527605    5.245719
     47          8           0       -7.803634    0.270876    5.168748
     48          8           0       -8.024828   -0.162053   12.747917
     49          8           0       -1.315168   -2.864097   12.772134
     50         74           0       -1.237600   -0.547074    8.839337
     51         74           0       -8.129761   -2.535066    8.873448
     52         74           0       -5.873890    1.853687    9.044256
     53         74           0       -3.490956   -4.921155    9.162541
     54          8           0       -4.213404   -3.117577    6.071891
     55          8           0       -5.143291   -0.061168    6.018658
     56          8           0       -6.166165   -2.004713   11.914310
     57          8           0       -3.168324   -0.992987   11.915219
     58          8           0       -4.346333    1.579330    7.838060
     59          8           0       -5.008963   -4.689594    7.924290
     60          8           0       -2.310421    0.561176   10.075114
     61          8           0       -7.044835   -3.617420   10.131202
     62          8           0       -2.572057   -3.911747    7.865669
     63          8           0       -6.803146    0.791570    7.802038
     64          8           0       -7.817964   -1.179311   10.145101
     65          8           0       -1.548190   -1.878675   10.142344
     66          8           0       -3.350805   -1.162438    8.013694
     67          8           0       -6.010632   -1.964527    8.033879
     68          8           0       -5.108268   -0.212732    9.942157
     69          8           0       -4.237164   -2.851786    9.976219
     70         19           0       -3.215907   -6.135373    5.648248
     71         19           0       -0.122049    0.030544   12.322047
     72         19           0       -9.283794   -2.820466   12.420130
     73         23           0       -4.678777   -1.544593    8.990003
 ---------------------------------------------------------------------
 Rotational constants (GHZ):           0.0172104           0.0132172           0.0129950
 Standard basis: def2SVP (5D, 7F)
  1217 basis functions,  2313 primitive gaussians,  1337 cartesian basis functions
   321 alpha electrons      321 beta electrons
       nuclear repulsion energy     20975.5653619809 Hartrees.
 NAtoms=   73 NActive=   73 NUniq=   73 SFac= 1.00D+00 NAtFMM=   60 NAOKFM=T Big=T
 Integral buffers will be    131072 words long.
 Raffenetti 2 integral format.
 Two-electron integral symmetry is turned off.
 Nuclear repulsion after empirical dispersion term =    20975.2890309308 Hartrees.
 Force PCM accuracy= 1.00D-10.
 ------------------------------------------------------------------------------
 Polarizable Continuum Model (PCM)
 =================================
 Model                : PCM (using non-symmetric T matrix).
 Atomic radii         : SMD-Coulomb.
 Polarization charges : Total charges.
 Charge compensation  : None.
 Solution method      : On-the-fly selection.
 Cavity type          : VdW (van der Waals Surface) (Alpha=1.000).
 Cavity algorithm     : GePol (No added spheres)
                        Default sphere list used, NSphG=   73.
                        Lebedev-Laikov grids with approx.  5.0 points / Ang**2.
                        Smoothing algorithm: York/Karplus (Gamma=1.0000).
                        Polarization charges: spherical gaussians, with
                                              point-specific exponents (IZeta= 3).
                        Self-potential: point-specific (ISelfS= 7).
                        Self-field    : sphere-specific E.n sum rule (ISelfD= 2).
 1st derivatives      : Analytical E(r).r(x)/FMM algorithm (CHGder, D1EAlg=3).
                        Cavity 1st derivative terms included.
 Solvent              : Acetonitrile, Eps=  35.688000 Eps(inf)=   1.806874
 ------------------------------------------------------------------------------
 ------------------------------------------------------------------------------
 Atomic radii for non-electrostatic terms: SMD-CDS.
 ------------------------------------------------------------------------------
 Nuclear repulsion after PCM non-electrostatic terms =    20975.2833293460 Hartrees.
 One-electron integrals computed using PRISM.
   1 Symmetry operations used in ECPInt.
 ECPInt:  NShTT=  127765 NPrTT=  468030 LenC2=   96506 LenP2D=  220840.
 LDataN:  DoStor=T MaxTD1= 8 Len=  415
 NBasis=  1217 RedAO= T EigKep=  1.38D-04  NBF=  1217
 NBsUse=  1217 1.00D-06 EigRej= -1.00D+00 NBFU=  1217
 Defaulting to unpruned grid for atomic number  74.
 Defaulting to unpruned grid for atomic number  74.
 Defaulting to unpruned grid for atomic number  74.
 Defaulting to unpruned grid for atomic number  74.
 Defaulting to unpruned grid for atomic number  74.
 Defaulting to unpruned grid for atomic number  74.
 Defaulting to unpruned grid for atomic number  74.
 Defaulting to unpruned grid for atomic number  74.
 Initial guess from the checkpoint file:  "a.chk"
 B after Tr=     0.001146   -0.000487    0.000276
         Rot=    1.000000   -0.000018    0.000012    0.000031 Ang=  -0.00 deg.
 Requested convergence on RMS density matrix=1.00D-08 within  64 cycles.
 Requested convergence on MAX density matrix=1.00D-06.
 Requested convergence on             energy=1.00D-06.
 No special actions if energy rises.
 Defaulting to unpruned grid for atomic number  74.
 Defaulting to unpruned grid for atomic number  74.
 Defaulting to unpruned grid for atomic number  74.
 Defaulting to unpruned grid for atomic number  74.
 Defaulting to unpruned grid for atomic number  74.
 Defaulting to unpruned grid for atomic number  74.
 Defaulting to unpruned grid for atomic number  74.
 Defaulting to unpruned grid for atomic number  74.
 Defaulting to unpruned grid for atomic number  74.
 Defaulting to unpruned grid for atomic number  74.
 Defaulting to unpruned grid for atomic number  74.
 Defaulting to unpruned grid for atomic number  74.
 Defaulting to unpruned grid for atomic number  74.
 Defaulting to unpruned grid for atomic number  74.
 Defaulting to unpruned grid for atomic number  74.
 Defaulting to unpruned grid for atomic number  74.
 Defaulting to unpruned grid for atomic number  74.
 Defaulting to unpruned grid for atomic number  74.
 Defaulting to unpruned grid for atomic number  74.
 Defaulting to unpruned grid for atomic number  74.
 Defaulting to unpruned grid for atomic number  74.
 Defaulting to unpruned grid for atomic number  74.
 Defaulting to unpruned grid for atomic number  74.
 Defaulting to unpruned grid for atomic number  74.
 Defaulting to unpruned grid for atomic number  74.
 Defaulting to unpruned grid for atomic number  74.
 Defaulting to unpruned grid for atomic number  74.
 Defaulting to unpruned grid for atomic number  74.
 Defaulting to unpruned grid for atomic number  74.
 Defaulting to unpruned grid for atomic number  74.
 Defaulting to unpruned grid for atomic number  74.
 Defaulting to unpruned grid for atomic number  74.
 Defaulting to unpruned grid for atomic number  74.
 Defaulting to unpruned grid for atomic number  74.
 Defaulting to unpruned grid for atomic number  74.
 Defaulting to unpruned grid for atomic number  74.
 Defaulting to unpruned grid for atomic number  74.
 Defaulting to unpruned grid for atomic number  74.
 Defaulting to unpruned grid for atomic number  74.
 Defaulting to unpruned grid for atomic number  74.
 Defaulting to unpruned grid for atomic number  74.
 Defaulting to unpruned grid for atomic number  74.
 Defaulting to unpruned grid for atomic number  74.
 Defaulting to unpruned grid for atomic number  74.
 Defaulting to unpruned grid for atomic number  74.
 Defaulting to unpruned grid for atomic number  74.
 Defaulting to unpruned grid for atomic number  74.
 Defaulting to unpruned grid for atomic number  74.
 Defaulting to unpruned grid for atomic number  74.
 Defaulting to unpruned grid for atomic number  74.
 Defaulting to unpruned grid for atomic number  74.
 Defaulting to unpruned grid for atomic number  74.
 Defaulting to unpruned grid for atomic number  74.
 Defaulting to unpruned grid for atomic number  74.
 Defaulting to unpruned grid for atomic number  74.
 Defaulting to unpruned grid for atomic number  74.
 Inv3:  Mode=1 IEnd=    87480000.
 Iteration    1 A*A^-1 deviation from unit magnitude is 3.55D-15 for   1663.
 Iteration    1 A*A^-1 deviation from orthogonality  is 3.57D-15 for   3598   3457.
 Iteration    1 A^-1*A deviation from unit magnitude is 3.55D-15 for   1272.
 Iteration    1 A^-1*A deviation from orthogonality  is 1.88D-11 for    904    848.
 Error on total polarization charges =  0.01615
 SCF Done:  E(RwB97XD) =  -7327.70194430     A.U. after   11 cycles
            NFock= 11  Conv=0.45D-08     -V/T= 2.0832
 SMD-CDS (non-electrostatic) energy       (kcal/mol) =      -3.58
 (included in total energy above)
 QCSCF skips out because SCF is already converged.

 **********************************************************************

            Population analysis using the SCF Density.

 **********************************************************************

 Alpha  occ. eigenvalues -- -197.29399-130.00097-130.00056-129.99993-101.48386
 Alpha  occ. eigenvalues --  -22.62528 -19.33615 -19.33609 -19.33607 -19.33582
 Alpha  occ. eigenvalues --  -19.30729 -19.30694 -19.30693 -19.30682 -19.30680
 Alpha  occ. eigenvalues --  -19.30673 -19.30664 -19.30640 -19.30572 -19.30368
 Alpha  occ. eigenvalues --  -19.30347 -19.30175 -19.29325 -19.29322 -19.29299
 Alpha  occ. eigenvalues --  -19.29288 -19.29273 -19.29272 -19.29244 -19.29222
 Alpha  occ. eigenvalues --  -19.29210 -19.29179 -19.29177 -19.29154 -19.29143
 Alpha  occ. eigenvalues --  -19.29108 -19.29100 -19.29098 -19.29095 -19.29070
 Alpha  occ. eigenvalues --  -19.29067 -19.29030 -19.28998 -19.28973 -19.28954
 Alpha  occ. eigenvalues --  -19.28868 -19.11484 -19.11476 -19.11468 -13.37499
 Alpha  occ. eigenvalues --  -13.37458 -13.37389 -10.70429 -10.70422 -10.70421
 Alpha  occ. eigenvalues --  -10.70388 -10.70381 -10.70379 -10.70320 -10.70313
 Alpha  occ. eigenvalues --  -10.70308 -10.29825 -10.29328 -10.29276 -10.29036
 Alpha  occ. eigenvalues --  -10.28938 -10.28933 -10.28063 -10.27439  -9.38863
 Alpha  occ. eigenvalues --   -7.13690  -7.13639  -7.13632  -3.23322  -3.23320
 Alpha  occ. eigenvalues --   -3.23302  -3.23299  -3.23293  -3.23271  -3.23259
 Alpha  occ. eigenvalues --   -3.23256  -3.23228  -3.22975  -3.22957  -3.22778
 Alpha  occ. eigenvalues --   -2.91783  -1.94168  -1.94135  -1.94123  -1.87722
 Alpha  occ. eigenvalues --   -1.87678  -1.87662  -1.87631  -1.87493  -1.87474
 Alpha  occ. eigenvalues --   -1.87470  -1.87453  -1.87431  -1.87276  -1.87247
 Alpha  occ. eigenvalues --   -1.87096  -1.86631  -1.86513  -1.86503  -1.86486
 Alpha  occ. eigenvalues --   -1.86459  -1.86438  -1.86347  -1.86334  -1.86319
 Alpha  occ. eigenvalues --   -1.86300  -1.86292  -1.86264  -1.86149  -1.86138
 Alpha  occ. eigenvalues --   -1.86125  -1.86116  -1.86044  -1.86029  -1.85992
 Alpha  occ. eigenvalues --   -1.85922  -1.85905  -1.85805  -1.85716  -1.85667
 Alpha  occ. eigenvalues --   -1.51190  -1.51150  -1.51086  -1.13048  -1.11276
 Alpha  occ. eigenvalues --   -1.11191  -1.11189  -1.08966  -1.08533  -1.08494
 Alpha  occ. eigenvalues --   -1.08325  -1.07566  -1.07503  -1.07495  -1.06905
 Alpha  occ. eigenvalues --   -1.06896  -1.06876  -1.06327  -1.06305  -1.05326
 Alpha  occ. eigenvalues --   -1.05319  -1.04986  -1.04981  -1.04968  -1.04202
 Alpha  occ. eigenvalues --   -1.04193  -1.04179  -1.04035  -1.04012  -1.04003
 Alpha  occ. eigenvalues --   -1.03946  -1.03924  -1.03900  -1.03767  -1.03748
 Alpha  occ. eigenvalues --   -1.03622  -1.03561  -1.03305  -1.03268  -1.03125
 Alpha  occ. eigenvalues --   -1.03116  -1.03039  -1.02971  -0.94355  -0.86659
 Alpha  occ. eigenvalues --   -0.86626  -0.86563  -0.86482  -0.86465  -0.86465
 Alpha  occ. eigenvalues --   -0.86431  -0.86417  -0.86376  -0.86340  -0.82798
 Alpha  occ. eigenvalues --   -0.79714  -0.71650  -0.69641  -0.67981  -0.64618
 Alpha  occ. eigenvalues --   -0.63992  -0.63915  -0.63900  -0.63308  -0.63289
 Alpha  occ. eigenvalues --   -0.63170  -0.62906  -0.62673  -0.62603  -0.61987
 Alpha  occ. eigenvalues --   -0.61621  -0.61605  -0.61511  -0.61258  -0.61246
 Alpha  occ. eigenvalues --   -0.61184  -0.60420  -0.59484  -0.59460  -0.59450
 Alpha  occ. eigenvalues --   -0.59412  -0.59368  -0.58574  -0.58007  -0.57974
 Alpha  occ. eigenvalues --   -0.57889  -0.57063  -0.57031  -0.57003  -0.56294
 Alpha  occ. eigenvalues --   -0.56275  -0.56120  -0.55706  -0.54866  -0.54813
 Alpha  occ. eigenvalues --   -0.54770  -0.54510  -0.54243  -0.54113  -0.54104
 Alpha  occ. eigenvalues --   -0.54027  -0.53963  -0.53248  -0.53214  -0.53081
 Alpha  occ. eigenvalues --   -0.53045  -0.52907  -0.52719  -0.52685  -0.52646
 Alpha  occ. eigenvalues --   -0.52618  -0.52512  -0.52470  -0.52404  -0.51618
 Alpha  occ. eigenvalues --   -0.51603  -0.51335  -0.51316  -0.51273  -0.51233
 Alpha  occ. eigenvalues --   -0.51178  -0.51164  -0.50931  -0.50778  -0.50605
 Alpha  occ. eigenvalues --   -0.50585  -0.50577  -0.49891  -0.49884  -0.49301
 Alpha  occ. eigenvalues --   -0.49274  -0.49238  -0.49215  -0.49165  -0.49082
 Alpha  occ. eigenvalues --   -0.48899  -0.48078  -0.48030  -0.47922  -0.47644
 Alpha  occ. eigenvalues --   -0.47391  -0.47294  -0.47251  -0.46998  -0.46951
 Alpha  occ. eigenvalues --   -0.46831  -0.46552  -0.46515  -0.46501  -0.46193
 Alpha  occ. eigenvalues --   -0.46145  -0.46106  -0.45593  -0.45107  -0.44924
 Alpha  occ. eigenvalues --   -0.44883  -0.44213  -0.44146  -0.44037  -0.43490
 Alpha  occ. eigenvalues --   -0.43294  -0.43243  -0.43124  -0.43111  -0.43078
 Alpha  occ. eigenvalues --   -0.42717  -0.42696  -0.42668  -0.42597  -0.42588
 Alpha  occ. eigenvalues --   -0.42507  -0.42476  -0.42455  -0.42297  -0.42281
 Alpha  occ. eigenvalues --   -0.42264  -0.42033  -0.41919  -0.41867  -0.41850
 Alpha  occ. eigenvalues --   -0.41183  -0.41172  -0.41127  -0.41035  -0.40555
 Alpha  occ. eigenvalues --   -0.40534  -0.40519  -0.40373  -0.39444  -0.39443
 Alpha  occ. eigenvalues --   -0.36982  -0.32543  -0.29191  -0.25162  -0.25134
 Alpha  occ. eigenvalues --   -0.23519
 Alpha virt. eigenvalues --   -0.09424  -0.09212  -0.08499  -0.08442  -0.07021
 Alpha virt. eigenvalues --   -0.07000  -0.06922  -0.04432  -0.04136  -0.04089
 Alpha virt. eigenvalues --   -0.03720  -0.03490  -0.03441  -0.03235  -0.03134
 Alpha virt. eigenvalues --   -0.03092  -0.03066  -0.02219  -0.02168  -0.02137
 Alpha virt. eigenvalues --   -0.01509  -0.01488  -0.01436  -0.01306  -0.01238
 Alpha virt. eigenvalues --   -0.00097  -0.00073  -0.00017   0.01404   0.01456
 Alpha virt. eigenvalues --    0.01903   0.01931   0.02030   0.02142   0.02171
 Alpha virt. eigenvalues --    0.02181   0.02252   0.02303   0.02772   0.02843
 Alpha virt. eigenvalues --    0.02911   0.02985   0.03018   0.04450   0.04533
 Alpha virt. eigenvalues --    0.06760   0.07274   0.07509   0.07538   0.07787
 Alpha virt. eigenvalues --    0.08017   0.08488   0.08528   0.08791   0.09151
 Alpha virt. eigenvalues --    0.09335   0.09387   0.09664   0.09881   0.10240
 Alpha virt. eigenvalues --    0.10318   0.10358   0.10418   0.10468   0.10636
 Alpha virt. eigenvalues --    0.10896   0.11052   0.11063   0.11638   0.11721
 Alpha virt. eigenvalues --    0.12216   0.13124   0.13232   0.13328   0.13601
 Alpha virt. eigenvalues --    0.13760   0.14467   0.14560   0.14680   0.15004
 Alpha virt. eigenvalues --    0.15550   0.16151   0.16337   0.16573   0.16744
 Alpha virt. eigenvalues --    0.16761   0.16912   0.17077   0.17245   0.17715
 Alpha virt. eigenvalues --    0.17909   0.18157   0.18219   0.18380   0.18576
 Alpha virt. eigenvalues --    0.18743   0.19035   0.19278   0.19395   0.19570
 Alpha virt. eigenvalues --    0.19637   0.20182   0.20284   0.20469   0.20588
 Alpha virt. eigenvalues --    0.20746   0.20876   0.20990   0.21350   0.21413
 Alpha virt. eigenvalues --    0.21519   0.21620   0.21681   0.21871   0.22035
 Alpha virt. eigenvalues --    0.22460   0.22731   0.22905   0.23144   0.23217
 Alpha virt. eigenvalues --    0.23458   0.23774   0.23971   0.24272   0.24578
 Alpha virt. eigenvalues --    0.24759   0.25212   0.25439   0.25676   0.25858
 Alpha virt. eigenvalues --    0.26006   0.26196   0.26433   0.26585   0.26688
 Alpha virt. eigenvalues --    0.26959   0.27236   0.27373   0.27434   0.27742
 Alpha virt. eigenvalues --    0.28035   0.28266   0.28315   0.28615   0.28738
 Alpha virt. eigenvalues --    0.29140   0.29518   0.29899   0.30370   0.30510
 Alpha virt. eigenvalues --    0.30733   0.30926   0.31244   0.31478   0.31818
 Alpha virt. eigenvalues --    0.32297   0.34767   0.35207   0.35776   0.36324
 Alpha virt. eigenvalues --    0.36648   0.36922   0.37279   0.38117   0.38416
 Alpha virt. eigenvalues --    0.38640   0.39178   0.39501   0.39641   0.40241
 Alpha virt. eigenvalues --    0.40706   0.40857   0.40950   0.41125   0.41738
 Alpha virt. eigenvalues --    0.42106   0.42454   0.42779   0.43285   0.43529
 Alpha virt. eigenvalues --    0.43693   0.44480   0.44738   0.44869   0.45242
 Alpha virt. eigenvalues --    0.45764   0.46320   0.46546   0.46675   0.47332
 Alpha virt. eigenvalues --    0.47388   0.47643   0.47848   0.48073   0.48208
 Alpha virt. eigenvalues --    0.48407   0.48448   0.48581   0.48679   0.48956
 Alpha virt. eigenvalues --    0.49160   0.49386   0.49436   0.49807   0.49812
 Alpha virt. eigenvalues --    0.50191   0.50435   0.50621   0.50773   0.50992
 Alpha virt. eigenvalues --    0.51629   0.51718   0.51891   0.52245   0.52422
 Alpha virt. eigenvalues --    0.52662   0.52905   0.53006   0.53155   0.53305
 Alpha virt. eigenvalues --    0.53622   0.54035   0.54250   0.54344   0.54488
 Alpha virt. eigenvalues --    0.54961   0.55405   0.55643   0.56350   0.56441
 Alpha virt. eigenvalues --    0.56810   0.57392   0.57731   0.58032   0.58290
 Alpha virt. eigenvalues --    0.58565   0.59081   0.59458   0.60169   0.60782
 Alpha virt. eigenvalues --    0.61378   0.62305   0.62616   0.62763   0.63228
 Alpha virt. eigenvalues --    0.64179   0.65271   0.65688   0.65727   0.65926
 Alpha virt. eigenvalues --    0.66141   0.66529   0.66994   0.67372   0.67437
 Alpha virt. eigenvalues --    0.67840   0.68321   0.69611   0.70224   0.71113
 Alpha virt. eigenvalues --    0.71408   0.71920   0.72144   0.72234   0.72282
 Alpha virt. eigenvalues --    0.72564   0.72734   0.73255   0.73359   0.73984
 Alpha virt. eigenvalues --    0.74606   0.74833   0.75542   0.75672   0.75880
 Alpha virt. eigenvalues --    0.76171   0.76765   0.76906   0.77177   0.77442
 Alpha virt. eigenvalues --    0.78036   0.78504   0.79084   0.79466   0.79683
 Alpha virt. eigenvalues --    0.80248   0.80516   0.80649   0.80716   0.81454
 Alpha virt. eigenvalues --    0.81514   0.81800   0.82016   0.82498   0.83219
 Alpha virt. eigenvalues --    0.83982   0.84227   0.84733   0.85415   0.85919
 Alpha virt. eigenvalues --    0.87161   0.87498   0.87965   0.88047   0.88678
 Alpha virt. eigenvalues --    0.88923   0.89005   0.89493   0.89615   0.90272
 Alpha virt. eigenvalues --    0.90652   0.90923   0.91228   0.91439   0.91726
 Alpha virt. eigenvalues --    0.92781   0.93045   0.93518   0.93869   0.94095
 Alpha virt. eigenvalues --    0.94187   0.94817   0.95638   0.95858   0.96509
 Alpha virt. eigenvalues --    0.96850   0.97059   0.97258   0.97720   0.97818
 Alpha virt. eigenvalues --    0.98154   0.98276   0.98409   0.98550   0.98788
 Alpha virt. eigenvalues --    0.98914   0.99430   0.99940   1.00334   1.00530
 Alpha virt. eigenvalues --    1.00867   1.01255   1.01525   1.01625   1.01670
 Alpha virt. eigenvalues --    1.02108   1.02231   1.02415   1.02461   1.02655
 Alpha virt. eigenvalues --    1.02896   1.03400   1.03488   1.03628   1.03879
 Alpha virt. eigenvalues --    1.04155   1.04206   1.04363   1.04644   1.04740
 Alpha virt. eigenvalues --    1.05001   1.05102   1.05245   1.05441   1.05798
 Alpha virt. eigenvalues --    1.05932   1.06366   1.06618   1.06998   1.07140
 Alpha virt. eigenvalues --    1.07513   1.07844   1.08627   1.09064   1.09230
 Alpha virt. eigenvalues --    1.09390   1.09827   1.09909   1.10092   1.10235
 Alpha virt. eigenvalues --    1.10748   1.10848   1.10951   1.11004   1.11262
 Alpha virt. eigenvalues --    1.11466   1.11669   1.11740   1.12091   1.12463
 Alpha virt. eigenvalues --    1.12766   1.13435   1.13597   1.14133   1.14832
 Alpha virt. eigenvalues --    1.15265   1.15752   1.16178   1.16251   1.16655
 Alpha virt. eigenvalues --    1.17068   1.17640   1.17850   1.18645   1.18714
 Alpha virt. eigenvalues --    1.19612   1.20577   1.20951   1.21147   1.21291
 Alpha virt. eigenvalues --    1.21468   1.21908   1.22121   1.22952   1.23580
 Alpha virt. eigenvalues --    1.25088   1.26011   1.26452   1.26649   1.26979
 Alpha virt. eigenvalues --    1.27488   1.28169   1.28468   1.28599   1.28656
 Alpha virt. eigenvalues --    1.28843   1.29096   1.29179   1.29377   1.29757
 Alpha virt. eigenvalues --    1.30164   1.30178   1.30390   1.30723   1.30800
 Alpha virt. eigenvalues --    1.31111   1.32162   1.32463   1.32955   1.33195
 Alpha virt. eigenvalues --    1.33279   1.33449   1.33670   1.33888   1.34103
 Alpha virt. eigenvalues --    1.34268   1.34323   1.34538   1.34744   1.34867
 Alpha virt. eigenvalues --    1.34942   1.35178   1.35660   1.35781   1.36109
 Alpha virt. eigenvalues --    1.36181   1.36507   1.36717   1.36816   1.36968
 Alpha virt. eigenvalues --    1.37198   1.37378   1.37523   1.37846   1.37895
 Alpha virt. eigenvalues --    1.38152   1.38471   1.38700   1.38984   1.39153
 Alpha virt. eigenvalues --    1.39377   1.39476   1.39640   1.39782   1.40226
 Alpha virt. eigenvalues --    1.40351   1.40512   1.40577   1.40740   1.40967
 Alpha virt. eigenvalues --    1.41086   1.41208   1.41470   1.41888   1.42050
 Alpha virt. eigenvalues --    1.42545   1.43049   1.43254   1.43397   1.43429
 Alpha virt. eigenvalues --    1.43854   1.44207   1.44513   1.44595   1.45651
 Alpha virt. eigenvalues --    1.46259   1.47070   1.47584   1.47684   1.48033
 Alpha virt. eigenvalues --    1.48229   1.48590   1.49204   1.49616   1.49898
 Alpha virt. eigenvalues --    1.50459   1.51000   1.51329   1.51880   1.53248
 Alpha virt. eigenvalues --    1.53644   1.55389   1.55774   1.55811   1.55980
 Alpha virt. eigenvalues --    1.56154   1.56363   1.56668   1.56729   1.57165
 Alpha virt. eigenvalues --    1.57189   1.58008   1.58281   1.59221   1.59251
 Alpha virt. eigenvalues --    1.59780   1.60206   1.60343   1.60461   1.60544
 Alpha virt. eigenvalues --    1.60688   1.61185   1.61931   1.62197   1.62439
 Alpha virt. eigenvalues --    1.64150   1.64420   1.65097   1.65733   1.66813
 Alpha virt. eigenvalues --    1.67512   1.67942   1.69840   1.70554   1.70877
 Alpha virt. eigenvalues --    1.71295   1.71659   1.72364   1.73357   1.74142
 Alpha virt. eigenvalues --    1.75216   1.75421   1.75527   1.75908   1.76681
 Alpha virt. eigenvalues --    1.76871   1.76942   1.77548   1.77803   1.78716
 Alpha virt. eigenvalues --    1.78813   1.79295   1.79763   1.80469   1.80722
 Alpha virt. eigenvalues --    1.81196   1.81292   1.82090   1.82347   1.82947
 Alpha virt. eigenvalues --    1.83064   1.83271   1.83918   1.84152   1.84517
 Alpha virt. eigenvalues --    1.85175   1.85538   1.85742   1.86087   1.86311
 Alpha virt. eigenvalues --    1.86544   1.87154   1.87419   1.88145   1.88644
 Alpha virt. eigenvalues --    1.89357   1.89934   1.90167   1.90349   1.90397
 Alpha virt. eigenvalues --    1.90831   1.90996   1.91319   1.92335   1.93359
 Alpha virt. eigenvalues --    1.94864   1.95275   1.95417   1.95632   1.96039
 Alpha virt. eigenvalues --    1.98205   1.99270   1.99469   1.99542   2.04238
 Alpha virt. eigenvalues --    2.06302   2.07111   2.08175   2.08527   2.08755
 Alpha virt. eigenvalues --    2.08985   2.09165   2.09500   2.10158   2.10971
 Alpha virt. eigenvalues --    2.11485   2.11960   2.12674   2.14752   2.15687
 Alpha virt. eigenvalues --    2.15986   2.16832   2.17264   2.17428   2.17817
 Alpha virt. eigenvalues --    2.20089   2.20485   2.20550   2.20762   2.20893
 Alpha virt. eigenvalues --    2.21197   2.22208   2.24217   2.25373   2.26030
 Alpha virt. eigenvalues --    2.26383   2.26718   2.27295   2.28443   2.28883
 Alpha virt. eigenvalues --    2.29114   2.29769   2.30325   2.33527   2.35681
 Alpha virt. eigenvalues --    2.36804   2.40078   2.40959   2.41008   2.43599
 Alpha virt. eigenvalues --    2.44303   2.50540   2.51738   2.57272   2.64734
 Alpha virt. eigenvalues --    2.64795   2.64934   2.65514   2.66002   2.66575
 Alpha virt. eigenvalues --    2.66789   2.66833   2.66933   2.66973   2.67051
 Alpha virt. eigenvalues --    2.67089   2.67148   2.67317   2.67350   2.67400
 Alpha virt. eigenvalues --    2.67642   2.67679   2.67810   2.67849   2.67905
 Alpha virt. eigenvalues --    2.68669   2.68913   2.69218   2.69376   2.70013
 Alpha virt. eigenvalues --    2.70176   2.70278   2.70613   2.70687   2.70797
 Alpha virt. eigenvalues --    2.70950   2.71365   2.71430   2.71520   2.71583
 Alpha virt. eigenvalues --    2.71649   2.71905   2.72678   2.72888   2.72965
 Alpha virt. eigenvalues --    2.73076   2.73176   2.73246   2.73326   2.73360
 Alpha virt. eigenvalues --    2.73483   2.73740   2.73866   2.73892   2.73990
 Alpha virt. eigenvalues --    2.74052   2.74140   2.74313   2.74534   2.74693
 Alpha virt. eigenvalues --    2.74758   2.74903   2.75063   2.75596   2.75955
 Alpha virt. eigenvalues --    2.76162   2.76285   2.76440   2.76706   2.76895
 Alpha virt. eigenvalues --    2.77051   2.77165   2.77188   2.78410   2.78554
 Alpha virt. eigenvalues --    2.78634   2.78877   2.79814   2.80073   2.80176
 Alpha virt. eigenvalues --    2.81071   2.81776   2.81793   2.82089   2.82298
 Alpha virt. eigenvalues --    2.82324   2.82727   2.83102   2.83283   2.83667
 Alpha virt. eigenvalues --    2.83782   2.83923   2.83996   2.84230   2.85096
 Alpha virt. eigenvalues --    2.85565   2.86133   2.86239   2.86307   2.86396
 Alpha virt. eigenvalues --    2.86591   2.86768   2.86892   2.88169   2.88477
 Alpha virt. eigenvalues --    2.88665   2.89034   2.89654   2.89710   2.89817
 Alpha virt. eigenvalues --    2.89939   2.89978   2.90084   2.90541   2.90601
 Alpha virt. eigenvalues --    2.90722   2.91732   2.91883   2.92030   2.92064
 Alpha virt. eigenvalues --    2.92277   2.92477   2.92761   2.92925   2.93058
 Alpha virt. eigenvalues --    2.93347   2.93541   2.93646   2.93997   2.94115
 Alpha virt. eigenvalues --    2.94167   2.95016   2.95191   2.95399   2.95730
 Alpha virt. eigenvalues --    2.95820   2.95873   2.96413   2.96593   2.96679
 Alpha virt. eigenvalues --    2.96748   2.96941   2.96967   2.97204   2.97422
 Alpha virt. eigenvalues --    2.97585   2.97718   2.97913   2.98360   2.99132
 Alpha virt. eigenvalues --    2.99356   2.99399   2.99678   2.99760   3.00038
 Alpha virt. eigenvalues --    3.00117   3.00435   3.01072   3.01414   3.01504
 Alpha virt. eigenvalues --    3.02755   3.03200   3.03393   3.03755   3.05114
 Alpha virt. eigenvalues --    3.06486   3.06685   3.07122   3.11068   3.11599
 Alpha virt. eigenvalues --    3.11719   3.11831   3.12202   3.12633   3.13715
 Alpha virt. eigenvalues --    3.13848   3.13999   3.16875   3.19810   3.21691
 Alpha virt. eigenvalues --    3.21851   3.23937   3.32590   3.41071   3.41420
 Alpha virt. eigenvalues --    3.42063   3.43081   3.44802   3.44850   3.45779
 Alpha virt. eigenvalues --    3.46233   3.46306   3.47156   3.47387   3.47767
 Alpha virt. eigenvalues --    3.48381   3.51158   3.51729   3.52241   3.53510
 Alpha virt. eigenvalues --    3.53816   3.54275   3.54617   3.54806   3.54998
 Alpha virt. eigenvalues --    3.55209   3.55326   3.55468   3.56535   3.57426
 Alpha virt. eigenvalues --    3.57643   3.58401   3.59430   3.59579   3.60242
 Alpha virt. eigenvalues --    3.60585   3.61218   3.61521   3.62014   3.62368
 Alpha virt. eigenvalues --    3.69544   3.74814  68.64247  68.65366  68.66369
 Alpha virt. eigenvalues --   68.68467  68.72581  68.73628  68.81637  68.82628
 Alpha virt. eigenvalues --   68.83330  68.85615  68.86799  68.88057 576.22684
 Alpha virt. eigenvalues --  576.23778 576.24760 576.26811 576.30932 576.31967
 Alpha virt. eigenvalues --  576.39826 576.40794 576.41477 576.43668 576.44822
 Alpha virt. eigenvalues --  576.46072
          Condensed to atoms (all electrons):
 Mulliken charges:
               1
     1  Cl  -0.891949
     2  C   -0.080976
     3  C    0.049361
     4  C   -0.080082
     5  C   -0.033732
     6  C   -0.033835
     7  C   -0.049502
     8  H    0.029884
     9  H    0.028994
    10  H    0.040893
    11  H    0.036733
    12  H    0.039653
    13  C   -0.125471
    14  C    0.026556
    15  H    0.020478
    16  H    0.035646
    17  H    0.024867
    18  O   -0.663682
    19  O   -0.662908
    20  O   -0.655292
    21  O   -0.664119
    22  W    1.734079
    23  W    1.676647
    24  W    1.686848
    25  W    1.697113
    26  W    1.677380
    27  W    1.728531
    28  W    1.619481
    29  W    1.687940
    30  O   -0.320218
    31  O   -0.365835
    32  O   -0.367760
    33  O   -0.359740
    34  O   -0.664148
    35  O   -0.671022
    36  O   -0.661490
    37  O   -0.664153
    38  O   -0.367815
    39  O   -0.364882
    40  O   -0.297552
    41  O   -0.365009
    42  O   -0.670462
    43  O   -0.664128
    44  O   -0.660465
    45  O   -0.665962
    46  O   -0.367924
    47  O   -0.320427
    48  O   -0.361360
    49  O   -0.362261
    50  W    1.674154
    51  W    1.680674
    52  W    1.684553
    53  W    1.686592
    54  O   -0.726260
    55  O   -0.708449
    56  O   -0.726194
    57  O   -0.724051
    58  O   -0.706155
    59  O   -0.727165
    60  O   -0.726114
    61  O   -0.721310
    62  O   -0.725506
    63  O   -0.707738
    64  O   -0.725985
    65  O   -0.726653
    66  O   -0.802148
    67  O   -0.801374
    68  O   -0.798625
    69  O   -0.810170
    70  K    0.863651
    71  K    0.862460
    72  K    0.860764
    73  V    1.194125
 Sum of Mulliken charges =  -1.00000
 Mulliken charges with hydrogens summed into heavy atoms:
               1
     1  Cl  -0.891949
     2  C   -0.051092
     3  C    0.049361
     4  C   -0.051088
     5  C    0.007160
     6  C    0.002898
     7  C   -0.009849
    13  C   -0.104993
    14  C    0.087069
    18  O   -0.663682
    19  O   -0.662908
    20  O   -0.655292
    21  O   -0.664119
    22  W    1.734079
    23  W    1.676647
    24  W    1.686848
    25  W    1.697113
    26  W    1.677380
    27  W    1.728531
    28  W    1.619481
    29  W    1.687940
    30  O   -0.320218
    31  O   -0.365835
    32  O   -0.367760
    33  O   -0.359740
    34  O   -0.664148
    35  O   -0.671022
    36  O   -0.661490
    37  O   -0.664153
    38  O   -0.367815
    39  O   -0.364882
    40  O   -0.297552
    41  O   -0.365009
    42  O   -0.670462
    43  O   -0.664128
    44  O   -0.660465
    45  O   -0.665962
    46  O   -0.367924
    47  O   -0.320427
    48  O   -0.361360
    49  O   -0.362261
    50  W    1.674154
    51  W    1.680674
    52  W    1.684553
    53  W    1.686592
    54  O   -0.726260
    55  O   -0.708449
    56  O   -0.726194
    57  O   -0.724051
    58  O   -0.706155
    59  O   -0.727165
    60  O   -0.726114
    61  O   -0.721310
    62  O   -0.725506
    63  O   -0.707738
    64  O   -0.725985
    65  O   -0.726653
    66  O   -0.802148
    67  O   -0.801374
    68  O   -0.798625
    69  O   -0.810170
    70  K    0.863651
    71  K    0.862460
    72  K    0.860764
    73  V    1.194125
 Electronic spatial extent (au):  <R**2>=         317244.3539
 Charge=             -1.0000 electrons
 Dipole moment (field-independent basis, Debye):
    X=             50.1493    Y=            -51.0890    Z=            -38.8141  Tot=             81.4345
 Quadrupole moment (field-independent basis, Debye-Ang):
   XX=          -1039.9311   YY=           -888.1020   ZZ=           -917.0107
   XY=            445.5158   XZ=            448.7625   YZ=           -476.2254
 Traceless Quadrupole moment (field-independent basis, Debye-Ang):
   XX=            -91.5832   YY=             60.2459   ZZ=             31.3372
   XY=            445.5158   XZ=            448.7625   YZ=           -476.2254
 Octapole moment (field-independent basis, Debye-Ang**2):
  XXX=          13180.8571  YYY=          -1072.0901  ZZZ=         -19186.5211  XYY=           6033.5696
  XXY=          -3517.3452  XXZ=          -9267.9777  XZZ=           7237.3287  YZZ=          -4152.2769
  YYZ=          -9036.7091  XYZ=           4706.9095
 Hexadecapole moment (field-independent basis, Debye-Ang**3):
 XXXX=        -155539.5538 YYYY=         -54053.0236 ZZZZ=        -346985.1256 XXXY=          35156.7171
 XXXZ=         120183.8783 YYYX=          20572.9351 YYYZ=         -12815.6195 ZZZX=         126497.8364
 ZZZY=         -35355.9773 XXYY=         -54990.4653 XXZZ=        -106165.8578 YYZZ=         -99791.3123
 XXYZ=         -40847.1932 YYXZ=          61140.4888 ZZXY=          49416.8778
 N-N= 2.097528332935D+04 E-N=-5.903497966136D+04  KE= 6.765163867233D+03
   1 Symmetry operations used in ECPInt.
 ECPInt:  NShTT=  127765 NPrTT=  468030 LenC2=   96506 LenP2D=  220840.
 LDataN:  DoStor=T MaxTD1= 9 Len=  602
 D1PCM: PCM CHGder 1st derivatives, ID1Alg=3 FixD1E=F DoIter=F DoCFld=F I1PDM=0.
 Calling FoFJK, ICntrl=      2127 FMM=T ISym2X=0 I1Cent= 0 IOpClX= 0 NMat=1 NMatS=1 NMatT=0.
 Defaulting to unpruned grid for atomic number  74.
 Defaulting to unpruned grid for atomic number  74.
 Defaulting to unpruned grid for atomic number  74.
 Defaulting to unpruned grid for atomic number  74.
 Defaulting to unpruned grid for atomic number  74.
 Defaulting to unpruned grid for atomic number  74.
 Defaulting to unpruned grid for atomic number  74.
 Defaulting to unpruned grid for atomic number  74.
 Defaulting to unpruned grid for atomic number  74.
 Defaulting to unpruned grid for atomic number  74.
 Defaulting to unpruned grid for atomic number  74.
 Defaulting to unpruned grid for atomic number  74.
 Defaulting to unpruned grid for atomic number  74.
 Defaulting to unpruned grid for atomic number  74.
 Defaulting to unpruned grid for atomic number  74.
 Defaulting to unpruned grid for atomic number  74.
 Defaulting to unpruned grid for atomic number  74.
 Defaulting to unpruned grid for atomic number  74.
 Defaulting to unpruned grid for atomic number  74.
 Defaulting to unpruned grid for atomic number  74.
 Defaulting to unpruned grid for atomic number  74.
 Defaulting to unpruned grid for atomic number  74.
 Defaulting to unpruned grid for atomic number  74.
 Defaulting to unpruned grid for atomic number  74.
 Defaulting to unpruned grid for atomic number  74.
 Defaulting to unpruned grid for atomic number  74.
 Defaulting to unpruned grid for atomic number  74.
 Defaulting to unpruned grid for atomic number  74.
 Defaulting to unpruned grid for atomic number  74.
 Defaulting to unpruned grid for atomic number  74.
 Defaulting to unpruned grid for atomic number  74.
 Defaulting to unpruned grid for atomic number  74.
 Defaulting to unpruned grid for atomic number  74.
 Defaulting to unpruned grid for atomic number  74.
 Defaulting to unpruned grid for atomic number  74.
 Defaulting to unpruned grid for atomic number  74.
 Defaulting to unpruned grid for atomic number  74.
 Defaulting to unpruned grid for atomic number  74.
 Defaulting to unpruned grid for atomic number  74.
 Defaulting to unpruned grid for atomic number  74.
 Defaulting to unpruned grid for atomic number  74.
 Defaulting to unpruned grid for atomic number  74.
 Defaulting to unpruned grid for atomic number  74.
 Defaulting to unpruned grid for atomic number  74.
 Defaulting to unpruned grid for atomic number  74.
 Defaulting to unpruned grid for atomic number  74.
 Defaulting to unpruned grid for atomic number  74.
 Defaulting to unpruned grid for atomic number  74.
 Defaulting to unpruned grid for atomic number  74.
 Defaulting to unpruned grid for atomic number  74.
 Defaulting to unpruned grid for atomic number  74.
 Defaulting to unpruned grid for atomic number  74.
 Defaulting to unpruned grid for atomic number  74.
 Defaulting to unpruned grid for atomic number  74.
 Defaulting to unpruned grid for atomic number  74.
 Defaulting to unpruned grid for atomic number  74.
 -------------------------------------------------------------------
 Center     Atomic                   Forces (Hartrees/Bohr)
 Number     Number              X              Y              Z
 -------------------------------------------------------------------
      1       17          -0.003327005    0.008434196    0.002619828
      2        6          -0.001552872   -0.000775239   -0.001822010
      3        6          -0.000956807   -0.001869264    0.003547090
      4        6           0.001329289    0.001960936    0.000549825
      5        6           0.000834655   -0.000144480    0.001370351
      6        6          -0.000077960   -0.000272198    0.000872652
      7        6          -0.001006526   -0.001335703    0.000428818
      8        1          -0.000084284    0.000126242   -0.000177582
      9        1          -0.000245712   -0.000147211   -0.000022890
     10        1          -0.000003777   -0.000390480    0.000152857
     11        1           0.000047429   -0.000071213    0.000140435
     12        1           0.000237905   -0.000054366    0.000141678
     13        6           0.007546879    0.010989798   -0.007397166
     14        6          -0.001580521   -0.017303531   -0.000178559
     15        1          -0.001200002    0.000597745    0.000213376
     16        1           0.000259242    0.000378044    0.000322440
     17        1          -0.001511801    0.001023340   -0.000828141
     18        8          -0.003233979    0.000454309    0.000834860
     19        8           0.003103717   -0.000756208    0.000953210
     20        8           0.002540715   -0.002904743   -0.000544883
     21        8          -0.002267617    0.002232064   -0.000979467
     22       74           0.001639136    0.010187561   -0.009522917
     23       74          -0.002428617   -0.009991742   -0.009778540
     24       74           0.006497649    0.008281132    0.009731215
     25       74          -0.007042159   -0.007150151    0.009951659
     26       74           0.007976795   -0.007465001   -0.010575892
     27       74          -0.008027665    0.007984840   -0.010325056
     28       74          -0.011362181    0.003038688    0.010598633
     29       74           0.010743793   -0.001777172    0.010559409
     30        8          -0.000534090   -0.002776779    0.003146228
     31        8           0.000225028    0.003003469    0.003157457
     32        8          -0.002226452   -0.001933439   -0.003056018
     33        8           0.002287572    0.001909895   -0.003283304
     34        8          -0.000997432   -0.000708395    0.003139833
     35        8           0.001395601    0.000134489    0.003327751
     36        8           0.000667667   -0.001482187   -0.003119641
     37        8          -0.000309887    0.001248632   -0.003277259
     38        8          -0.004340847   -0.001819104   -0.001209306
     39        8           0.004380171    0.001804397   -0.001254454
     40        8           0.002084272   -0.005842222    0.000863794
     41        8          -0.001017674    0.004646053    0.001211749
     42        8          -0.001967288   -0.002616743    0.001392384
     43        8           0.002338569    0.002462113    0.001066913
     44        8          -0.000347290   -0.003552263   -0.000621347
     45        8           0.000902227    0.003266741   -0.001325530
     46        8          -0.002607851    0.002573673    0.003112663
     47        8           0.002745583   -0.002206311    0.003296134
     48        8           0.003962628   -0.000724969   -0.003506331
     49        8          -0.003558873    0.000452340   -0.003338294
     50       74           0.014003386    0.004694847    0.002896680
     51       74          -0.014495553   -0.003755879    0.003284518
     52       74          -0.005526960    0.015348742   -0.003159973
     53       74           0.004732453   -0.014052054   -0.002780316
     54        8          -0.000591249    0.001470521    0.002036940
     55        8           0.000721471   -0.001513305    0.001932505
     56        8           0.001693494   -0.000178825   -0.002164089
     57        8          -0.001335783   -0.000527842   -0.001892081
     58        8           0.000222163   -0.002380255    0.001056848
     59        8           0.000464745    0.002189502    0.001357796
     60        8          -0.001449277   -0.001689620   -0.001435685
     61        8           0.001588432    0.001373344   -0.001408676
     62        8          -0.001127445    0.001938314    0.000746081
     63        8           0.001049256   -0.002436143    0.000453965
     64        8           0.002248764   -0.000163289   -0.001026532
     65        8          -0.002391678   -0.000229780   -0.000803236
     66        8          -0.026173834   -0.004816687    0.016617721
     67        8           0.026447053    0.005613634    0.016617096
     68        8           0.011042911   -0.025225580   -0.016739853
     69        8          -0.010796929    0.024060203   -0.017037107
     70       19           0.000219182   -0.000963049   -0.000655168
     71       19           0.000930588    0.000098381    0.000783193
     72       19          -0.000993545   -0.000377834    0.000597484
     73       23          -0.000410996    0.000403069    0.000163232
 -------------------------------------------------------------------
 Cartesian Forces:  Max     0.026447053 RMS     0.006011770

 GradGradGradGradGradGradGradGradGradGradGradGradGradGradGradGradGradGrad
 Berny optimization.
 Search for a local minimum.
 Step number   1 out of a maximum of    2
 All quantities printed in internal units (Hartrees-Bohrs-Radians)
 Second derivative matrix not updated -- first step.
 ITU=  0
     Eigenvalues ---   -0.00000   0.00000   0.00000   0.00010   0.00093
     Eigenvalues ---    0.00095   0.00257   0.00544   0.00640   0.01643
     Eigenvalues ---    0.01948   0.02903   0.02928   0.03208   0.03427
     Eigenvalues ---    0.03449   0.03722   0.03732   0.04159   0.04500
     Eigenvalues ---    0.04603   0.04614   0.04638   0.04841   0.04854
     Eigenvalues ---    0.04995   0.05355   0.05569   0.05596   0.06369
     Eigenvalues ---    0.06409   0.06534   0.06783   0.06863   0.07048
     Eigenvalues ---    0.07304   0.07387   0.07604   0.08363   0.08388
     Eigenvalues ---    0.08719   0.08752   0.08904   0.08947   0.09742
     Eigenvalues ---    0.09955   0.10104   0.10418   0.10465   0.10550
     Eigenvalues ---    0.10818   0.10896   0.11570   0.11663   0.12054
     Eigenvalues ---    0.12090   0.12170   0.12542   0.12558   0.12662
     Eigenvalues ---    0.12704   0.12779   0.12841   0.13094   0.13133
     Eigenvalues ---    0.13826   0.13980   0.14321   0.14537   0.14735
     Eigenvalues ---    0.16882   0.16919   0.17086   0.17154   0.17590
     Eigenvalues ---    0.17683   0.18572   0.19845   0.19998   0.20248
     Eigenvalues ---    0.20895   0.21091   0.21985   0.22039   0.22121
     Eigenvalues ---    0.22586   0.23167   0.23386   0.23955   0.23992
     Eigenvalues ---    0.24618   0.24750   0.24940   0.25616   0.26159
     Eigenvalues ---    0.26326   0.26525   0.27617   0.27702   0.27932
     Eigenvalues ---    0.28328   0.28372   0.28896   0.29637   0.29970
     Eigenvalues ---    0.30554   0.30658   0.30702   0.30762   0.30809
     Eigenvalues ---    0.30990   0.31234   0.31424   0.31587   0.32408
     Eigenvalues ---    0.32588   0.32624   0.32719   0.32919   0.33481
     Eigenvalues ---    0.33569   0.35079   0.35564   0.35876   0.36884
     Eigenvalues ---    0.37500   0.37670   0.37794   0.38322   0.38590
     Eigenvalues ---    0.38895   0.39263   0.40240   0.40291   0.41222
     Eigenvalues ---    0.42296   0.42327   0.43594   0.44178   0.44854
     Eigenvalues ---    0.45401   0.45625   0.45957   0.47916   0.48401
     Eigenvalues ---    0.48582   0.48926   0.49022   0.49734   0.49748
     Eigenvalues ---    0.50079   0.50844   0.51385   0.51942   0.52388
     Eigenvalues ---    0.53155   0.53798   0.55878   0.58675   0.64483
     Eigenvalues ---    0.67524   0.76680   0.81531   0.82748   0.96941
     Eigenvalues ---    0.97269   0.98802   0.99333   1.01756   1.04484
     Eigenvalues ---    1.07361   1.11280   1.11807   1.12312   1.15676
     Eigenvalues ---    1.18978   1.19444   1.20502   1.22235   1.22684
     Eigenvalues ---    1.22864   1.26368   1.26667   1.26880   1.27203
     Eigenvalues ---    1.27634   1.29202   1.29518   1.45181   1.45618
     Eigenvalues ---    1.45740   1.48106   1.51497   1.51818   1.52116
     Eigenvalues ---    1.52742   1.55776   1.55814   1.57179   1.58568
     Eigenvalues ---    1.58704   1.59434   1.61790   1.64401   1.73578
     Eigenvalues ---    1.84700   1.87908   1.91353   1.92295   1.93250
     Eigenvalues ---    2.01792   2.07117   3.17072
 Eigenvalue     1 is  -1.11D-16 should be greater than     0.000000 Eigenvector:
                          Y16       Y15       Y14       Y13       Y17
   1                    0.17433   0.17433   0.17433   0.17433   0.17433
                          Y9        Y3        Y4        Y8        Y2
   1                    0.17433   0.17433   0.17433   0.17433   0.17433
 Eigenvalue     2 is   2.75D-07 Eigenvector:
                          Y16       X16       X11       Y11       Y15
   1                    0.31623  -0.27109   0.26610  -0.24493   0.23727
                          Y14       X14       Y13       Y17       Z11
   1                    0.23073  -0.19108   0.18649   0.18625  -0.18625
 Eigenvalue     3 is   2.64D-06 Eigenvector:
                          X9        X10       Y12       Y8        X12
   1                    0.33599   0.29481   0.26791   0.25002  -0.24935
                          Y9        X15       Y10       X17       X8
   1                   -0.24394   0.22803  -0.22602  -0.21006  -0.20972
 Quadratic step=3.070D+01 exceeds max=3.000D-01 adjusted using Lamda=-1.312D-02.
 Angle between NR and scaled steps=  38.25 degrees.
 Angle between quadratic step and forces=  65.93 degrees.
 Linear search not attempted -- first point.
 B after Tr=    -0.000539    0.007286    0.001449
         Rot=    1.000000   -0.000142    0.000011    0.000047 Ang=  -0.02 deg.
 Variable       Old X    -DE/DX   Delta X   Delta X   Delta X     New X
                                 (Linear)    (Quad)   (Total)
    X1      -18.21999  -0.00333   0.00000  -0.00327  -0.00276 -18.22275
    Y1       15.62451   0.00843   0.00000   0.00845   0.01178  15.63629
    Z1       19.91405   0.00262   0.00000   0.00273   0.00824  19.92230
    X2      -15.78739  -0.00155   0.00000  -0.00861  -0.00889 -15.79628
    Y2        8.05092  -0.00078   0.00000  -0.01514  -0.01294   8.03798
    Z2       23.07297  -0.00182   0.00000  -0.00733  -0.00393  23.06904
    X3      -17.28979  -0.00096   0.00000  -0.00069  -0.00098 -17.29077
    Y3        7.43863  -0.00187   0.00000  -0.02409  -0.02115   7.41748
    Z3       20.96477   0.00355   0.00000  -0.00706  -0.00387  20.96090
    X4      -19.01698   0.00133   0.00000  -0.00928  -0.00976 -19.02674
    Y4        5.43033   0.00196   0.00000  -0.00865  -0.00562   5.42472
    Z4       21.19655   0.00055   0.00000   0.01575   0.01834  21.21489
    X5      -19.28885   0.00083   0.00000  -0.00506  -0.00571 -19.29456
    Y5        4.12931  -0.00014   0.00000  -0.00443  -0.00201   4.12730
    Z5       23.46401   0.00137   0.00000   0.02167   0.02388  23.48789
    X6      -17.81454  -0.00008   0.00000  -0.00395  -0.00458 -17.81912
    Y6        4.78680  -0.00027   0.00000  -0.00324  -0.00155   4.78524
    Z6       25.54974   0.00087   0.00000   0.01852   0.02095  25.57069
    X7      -16.05003  -0.00101   0.00000  -0.00723  -0.00768 -16.05771
    Y7        6.73840  -0.00134   0.00000  -0.00438  -0.00280   6.73560
    Z7       25.33652   0.00043   0.00000   0.00293   0.00595  25.34247
    X8      -14.39698  -0.00008   0.00000  -0.00680  -0.00693 -14.40391
    Y8        9.57133   0.00013   0.00000  -0.01631  -0.01420   9.55713
    Z8       22.94600  -0.00018   0.00000  -0.01424  -0.01037  22.93563
    X9      -20.17706  -0.00025   0.00000  -0.01243  -0.01293 -20.18998
    Y9        4.91570  -0.00015   0.00000  -0.01487  -0.01126   4.90444
    Z9       19.56544  -0.00002   0.00000   0.01912   0.02154  19.58698
   X10      -20.65905  -0.00000   0.00000  -0.00296  -0.00376 -20.66281
   Y10        2.59126  -0.00039   0.00000  -0.00675  -0.00424   2.58701
   Z10       23.60630   0.00015   0.00000   0.02401   0.02575  23.63206
   X11      -18.01977   0.00005   0.00000   0.00138   0.00061 -18.01916
   Y11        3.76412  -0.00007   0.00000   0.00003   0.00123   3.76534
   Z11       27.33047   0.00014   0.00000   0.02077   0.02290  27.35337
   X12      -14.87441   0.00024   0.00000  -0.00124  -0.00167 -14.87608
   Y12        7.24752  -0.00005   0.00000   0.00198   0.00299   7.25051
   Z12       26.95651   0.00014   0.00000  -0.00237   0.00083  26.95734
   X13      -17.18586   0.00755   0.00000   0.03549   0.03538 -17.15048
   Y13        8.84320   0.01099   0.00000  -0.06191  -0.05829   8.78490
   Z13       18.58462  -0.00740   0.00000  -0.04197  -0.03839  18.54623
   X14      -15.92454  -0.00158   0.00000   0.07340   0.07350 -15.85104
   Y14       11.02284  -0.01730   0.00000  -0.11547  -0.11185  10.91099
   Z14       18.18463  -0.00018   0.00000  -0.06439  -0.06018  18.12446
   X15      -18.30224  -0.00120   0.00000  -0.00661  -0.00676 -18.30900
   Y15        8.04069   0.00060   0.00000  -0.03901  -0.03485   8.00584
   Z15       17.03591   0.00021   0.00000  -0.02254  -0.01920  17.01670
   X16      -15.97621   0.00026   0.00000   0.06774   0.06797 -15.90824
   Y16       11.94449   0.00038   0.00000  -0.10300  -0.09886  11.84563
   Z16       16.34199   0.00032   0.00000  -0.05741  -0.05293  16.28906
   X17      -14.72265  -0.00151   0.00000   0.03843   0.03858 -14.68407
   Y17       11.88917   0.00102   0.00000  -0.08031  -0.07721  11.81196
   Z17       19.61430  -0.00083   0.00000  -0.05761  -0.05312  19.56118
   X18       -1.84316  -0.00323   0.00000  -0.01868  -0.01984  -1.86299
   Y18       -3.41547   0.00045   0.00000   0.00220   0.00564  -3.40983
   Z18       14.10207   0.00083   0.00000   0.00794   0.00837  14.11044
   X19      -15.84263   0.00310   0.00000   0.01275   0.01168 -15.83095
   Y19       -2.51408  -0.00076   0.00000   0.00914   0.01390  -2.50018
   Z19       14.10151   0.00095   0.00000   0.01115   0.01155  14.11306
   X20      -13.25657   0.00254   0.00000   0.00987   0.00914 -13.24743
   Y20        2.53913  -0.00290   0.00000  -0.01082  -0.00793   2.53120
   Z20       19.79854  -0.00054   0.00000  -0.00241  -0.00052  19.79802
   X21       -4.41117  -0.00227   0.00000  -0.00933  -0.01107  -4.42224
   Y21       -8.31160   0.00223   0.00000   0.01695   0.01898  -8.29262
   Z21       19.94631  -0.00098   0.00000  -0.01095  -0.01195  19.93436
   X22       -6.41335   0.00164   0.00000  -0.00736  -0.00803  -6.42138
   Y22        1.31755   0.01019   0.00000   0.01959   0.02400   1.34155
   Z22       12.25554  -0.00952   0.00000  -0.00530  -0.00361  12.25193
   X23      -11.31823  -0.00243   0.00000   0.00350   0.00201 -11.31622
   Y23       -7.23183  -0.00999   0.00000  -0.00392   0.00090  -7.23093
   Z23       12.39742  -0.00978   0.00000  -0.00489  -0.00574  12.39168
   X24       -6.80797   0.00650   0.00000   0.01460   0.01375  -6.79422
   Y24        1.64683   0.00828   0.00000   0.00241   0.00420   1.65103
   Z24       21.56266   0.00973   0.00000   0.00972   0.01149  21.57415
   X25      -10.89137  -0.00704   0.00000  -0.01586  -0.01755 -10.90892
   Y25       -7.31811  -0.00715   0.00000   0.00347   0.00560  -7.31251
   Z25       21.69547   0.00995   0.00000   0.00515   0.00428  21.69975
   X26       -4.59809   0.00798   0.00000  -0.00512  -0.00637  -4.60446
   Y26       -4.89478  -0.00747   0.00000  -0.00587  -0.00159  -4.89637
   Z26       12.08728  -0.01058   0.00000  -0.00793  -0.00798  12.07930
   X27      -13.09112  -0.00803   0.00000  -0.00258  -0.00347 -13.09460
   Y27       -1.01636   0.00798   0.00000   0.02072   0.02581  -0.99055
   Z27       12.02606  -0.01033   0.00000  -0.00607  -0.00518  12.02088
   X28      -12.86277  -0.01136   0.00000  -0.00858  -0.00963 -12.87240
   Y28       -0.48170   0.00304   0.00000  -0.00416  -0.00189  -0.48359
   Z28       21.86081   0.01060   0.00000   0.01039   0.01143  21.87224
   X29       -4.81247   0.01074   0.00000   0.00799   0.00650  -4.80597
   Y29       -5.18198  -0.00178   0.00000   0.01006   0.01156  -5.17042
   Z29       21.93599   0.01056   0.00000   0.00644   0.00632  21.94231
   X30       -5.96763  -0.00053   0.00000   0.00986   0.00944  -5.95819
   Y30        3.55855  -0.00278   0.00000   0.01097   0.01596   3.57451
   Z30       10.03019   0.00315   0.00000   0.00076   0.00309  10.03328
   X31      -11.57354   0.00023   0.00000  -0.01040  -0.01206 -11.58560
   Y31       -9.59376   0.00300   0.00000   0.00279   0.00825  -9.58551
   Z31       10.23824   0.00316   0.00000   0.00079  -0.00074  10.23750
   X32       -5.05391  -0.00223   0.00000   0.00254   0.00180  -5.05211
   Y32        3.23188  -0.00193   0.00000   0.00787   0.00887   3.24075
   Z32       23.73671  -0.00306   0.00000   0.00425   0.00651  23.74322
   X33      -12.62573   0.00229   0.00000  -0.00331  -0.00519 -12.63093
   Y33       -8.83628   0.00191   0.00000  -0.00387  -0.00221  -8.83849
   Z33       23.92831  -0.00328   0.00000  -0.00129  -0.00263  23.92568
   X34       -5.02810  -0.00100   0.00000  -0.01276  -0.01368  -5.04178
   Y34       -1.73010  -0.00071   0.00000   0.00293   0.00768  -1.72241
   Z34       10.56106   0.00314   0.00000   0.01109   0.01194  10.57300
   X35      -12.65674   0.00140   0.00000   0.00801   0.00684 -12.64991
   Y35       -4.29357   0.00013   0.00000   0.01076   0.01621  -4.27736
   Z35       10.62095   0.00333   0.00000   0.01343   0.01339  10.63434
   X36      -10.00893   0.00067   0.00000   0.00607   0.00513 -10.00380
   Y36        1.03421  -0.00148   0.00000  -0.01126  -0.00968   1.02453
   Z36       23.35420  -0.00312   0.00000  -0.00587  -0.00434  23.34986
   X37       -7.65541  -0.00031   0.00000  -0.00525  -0.00691  -7.66232
   Y37       -6.68596   0.00125   0.00000   0.01350   0.01483  -6.67112
   Z37       23.44912  -0.00328   0.00000  -0.01155  -0.01217  23.43695
   X38        0.60974  -0.00434   0.00000   0.00344   0.00252   0.61226
   Y38       -0.06027  -0.00182   0.00000  -0.00408  -0.00184  -0.06211
   Z38       17.52784  -0.00121   0.00000  -0.00180  -0.00036  17.52748
   X39      -18.31223   0.00438   0.00000  -0.00740  -0.00886 -18.32108
   Y39       -5.73881   0.00180   0.00000   0.01330   0.01729  -5.72152
   Z39       17.61556  -0.00125   0.00000  -0.00078  -0.00135  17.61421
   X40      -12.00083   0.00208   0.00000   0.00282   0.00254 -11.99829
   Y40        6.47289  -0.00584   0.00000   0.00657   0.01032   6.48321
   Z40       16.37719   0.00086   0.00000   0.00919   0.01223  16.38941
   X41       -5.68096  -0.00102   0.00000   0.00376   0.00171  -5.67924
   Y41      -12.27497   0.00465   0.00000   0.00497   0.00808 -12.26688
   Z41       16.52469   0.00121   0.00000   0.00040  -0.00177  16.52292
   X42       -3.34865  -0.00197   0.00000  -0.01334  -0.01405  -3.36270
   Y42        1.39862  -0.00262   0.00000  -0.00165   0.00193   1.40055
   Z42       14.12388   0.00139   0.00000   0.01173   0.01351  14.13739
   X43      -14.35570   0.00234   0.00000   0.00977   0.00824 -14.34746
   Y43       -7.33789   0.00246   0.00000   0.01332   0.01789  -7.32000
   Z43       14.25303   0.00107   0.00000   0.01036   0.00942  14.26245
   X44       -8.47622  -0.00035   0.00000   0.00446   0.00389  -8.47233
   Y44        4.14682  -0.00355   0.00000  -0.01248  -0.01001   4.13681
   Z44       19.69954  -0.00062   0.00000  -0.00181   0.00063  19.70017
   X45       -9.20597   0.00090   0.00000  -0.00538  -0.00727  -9.21324
   Y45       -9.89563   0.00327   0.00000   0.01842   0.02091  -9.87472
   Z45       19.89689  -0.00133   0.00000  -0.01129  -0.01285  19.88404
   X46       -3.03080  -0.00261   0.00000  -0.00432  -0.00570  -3.03650
   Y46       -6.66621   0.00257   0.00000   0.00729   0.01204  -6.65417
   Z46        9.91297   0.00311   0.00000  -0.00570  -0.00622   9.90676
   X47      -14.74673   0.00275   0.00000  -0.00695  -0.00765 -14.75438
   Y47        0.51188  -0.00221   0.00000   0.00525   0.01115   0.52303
   Z47        9.76752   0.00330   0.00000  -0.00074   0.00054   9.76806
   X48      -15.16473   0.00396   0.00000   0.00070  -0.00038 -15.16510
   Y48       -0.30624  -0.00072   0.00000   0.00409   0.00594  -0.30030
   Z48       24.09007  -0.00351   0.00000   0.00628   0.00732  24.09739
   X49       -2.48531  -0.00356   0.00000  -0.00085  -0.00241  -2.48772
   Y49       -5.41236   0.00045   0.00000  -0.00173  -0.00108  -5.41344
   Z49       24.13584  -0.00334   0.00000   0.00207   0.00193  24.13776
   X50       -2.33873   0.01400   0.00000   0.00543   0.00444  -2.33429
   Y50       -1.03382   0.00469   0.00000   0.00609   0.00884  -1.02498
   Z50       16.70393   0.00290   0.00000   0.01183   0.01293  16.71686
   X51      -15.36302  -0.01450   0.00000  -0.01008  -0.01143 -15.37445
   Y51       -4.79058  -0.00376   0.00000   0.00507   0.00902  -4.78156
   Z51       16.76839   0.00328   0.00000   0.01318   0.01294  16.78133
   X52      -11.10004  -0.00553   0.00000  -0.00162  -0.00219 -11.10224
   Y52        3.50296   0.01535   0.00000   0.01357   0.01703   3.51999
   Z52       17.09117  -0.00316   0.00000  -0.00637  -0.00415  17.08701
   X53       -6.59695   0.00473   0.00000  -0.00083  -0.00261  -6.59956
   Y53       -9.29964  -0.01405   0.00000  -0.00226   0.00072  -9.29891
   Z53       17.31469  -0.00278   0.00000  -0.01274  -0.01408  17.30061
   X54       -7.96218  -0.00059   0.00000  -0.00226  -0.00360  -7.96578
   Y54       -5.89137   0.00147   0.00000  -0.00442   0.00035  -5.89101
   Z54       11.47421   0.00204   0.00000  -0.00804  -0.00844  11.46577
   X55       -9.71941   0.00072   0.00000  -0.00433  -0.00512  -9.72453
   Y55       -0.11559  -0.00151   0.00000   0.02066   0.02562  -0.08997
   Z55       11.37362   0.00193   0.00000  -0.00687  -0.00565  11.36796
   X56      -11.65236   0.00169   0.00000  -0.01122  -0.01260 -11.66496
   Y56       -3.78836  -0.00018   0.00000  -0.00256  -0.00059  -3.78894
   Z56       22.51478  -0.00216   0.00000   0.00862   0.00874  22.52353
   X57       -5.98727  -0.00134   0.00000   0.01127   0.01008  -5.97719
   Y57       -1.87647  -0.00053   0.00000   0.00672   0.00816  -1.86832
   Z57       22.51650  -0.00189   0.00000   0.01001   0.01080  22.52730
   X58       -8.21338   0.00022   0.00000  -0.00432  -0.00489  -8.21827
   Y58        2.98450  -0.00238   0.00000   0.01619   0.02004   3.00454
   Z58       14.81179   0.00106   0.00000  -0.00529  -0.00316  14.80863
   X59       -9.46557   0.00046   0.00000   0.00216   0.00046  -9.46510
   Y59       -8.86205   0.00219   0.00000  -0.00436  -0.00044  -8.86249
   Z59       14.97474   0.00136   0.00000  -0.00768  -0.00896  14.96578
   X60       -4.36606  -0.00145   0.00000   0.01189   0.01105  -4.35502
   Y60        1.06047  -0.00169   0.00000   0.00460   0.00687   1.06734
   Z60       19.03921  -0.00144   0.00000   0.00979   0.01145  19.05066
   X61      -13.31281   0.00159   0.00000  -0.01478  -0.01637 -13.32918
   Y61       -6.83593   0.00137   0.00000   0.00352   0.00661  -6.82932
   Z61       19.14520  -0.00141   0.00000   0.00755   0.00677  19.15197
   X62       -4.86048  -0.00113   0.00000  -0.00207  -0.00362  -4.86410
   Y62       -7.39213   0.00194   0.00000  -0.00284   0.00068  -7.39145
   Z62       14.86396   0.00075   0.00000  -0.01067  -0.01143  14.85253
   X63      -12.85608   0.00105   0.00000  -0.00223  -0.00294 -12.85902
   Y63        1.49585  -0.00244   0.00000   0.01503   0.01933   1.51518
   Z63       14.74371   0.00045   0.00000  -0.00680  -0.00520  14.73852
   X64      -14.77381   0.00225   0.00000  -0.00887  -0.01002 -14.78384
   Y64       -2.22857  -0.00016   0.00000   0.00196   0.00518  -2.22339
   Z64       19.17146  -0.00103   0.00000   0.01147   0.01197  19.18343
   X65       -2.92566  -0.00239   0.00000   0.00552   0.00424  -2.92142
   Y65       -3.55018  -0.00023   0.00000   0.00634   0.00844  -3.54174
   Z65       19.16625  -0.00080   0.00000   0.00873   0.00911  19.17536
   X66       -6.33210  -0.02617   0.00000  -0.04926  -0.05033  -6.38243
   Y66       -2.19669  -0.00482   0.00000  -0.00084   0.00273  -2.19396
   Z66       15.14369   0.01662   0.00000   0.02744   0.02813  15.17181
   X67      -11.35845   0.02645   0.00000   0.04347   0.04226 -11.31619
   Y67       -3.71242   0.00561   0.00000   0.01600   0.02002  -3.69239
   Z67       15.18183   0.01662   0.00000   0.02884   0.02900  15.21083
   X68       -9.65323   0.01104   0.00000   0.02030   0.01932  -9.63391
   Y68       -0.40200  -0.02523   0.00000  -0.03821  -0.03536  -0.43736
   Z68       18.78795  -0.01674   0.00000  -0.02566  -0.02455  18.76341
   X69       -8.00708  -0.01080   0.00000  -0.02254  -0.02399  -8.03107
   Y69       -5.38910   0.02406   0.00000   0.04565   0.04833  -5.34076
   Z69       18.85232  -0.01704   0.00000  -0.02830  -0.02855  18.82377
   X70       -6.07718   0.00022   0.00000  -0.00132  -0.00317  -6.08036
   Y70      -11.59417  -0.00096   0.00000  -0.00446   0.00036 -11.59381
   Z70       10.67364  -0.00066   0.00000  -0.00945  -0.01143  10.66221
   X71       -0.23064   0.00093   0.00000   0.01143   0.01040  -0.22024
   Y71        0.05772   0.00010   0.00000   0.00345   0.00413   0.06185
   Z71       23.28529   0.00078   0.00000   0.00938   0.01084  23.29614
   X72      -17.54383  -0.00099   0.00000  -0.01284  -0.01439 -17.55821
   Y72       -5.32991  -0.00038   0.00000   0.00158   0.00384  -5.32607
   Z72       23.47064   0.00060   0.00000   0.00911   0.00867  23.47932
   X73       -8.84161  -0.00041   0.00000  -0.00250  -0.00367  -8.84528
   Y73       -2.91886   0.00040   0.00000   0.00594   0.00922  -2.90964
   Z73       16.98864   0.00016   0.00000   0.00084   0.00127  16.98991
         Item               Value     Threshold  Converged?
 Maximum Force            0.026447     0.000450     NO 
 RMS     Force            0.006012     0.000300     NO 
 Maximum Displacement     0.111851     0.001800     NO 
 RMS     Displacement     0.020137     0.001200     NO 
 Predicted change in Energy=-5.972148D-03
 GradGradGradGradGradGradGradGradGradGradGradGradGradGradGradGradGradGrad

 Unable to Open any file for archive entry.
 1\1\GINC-X11P1N2\Force\RwB97XD\def2SVP\C8H8Cl1K3O40V1W12(1-)\MAYUMIAO\
 02-Jun-2024\0\\# def2svp wb97xd scrf=(smd,solvent=acetonitrile) g09def
 ault scf=(xqc,maxcycle=64) force guess=read nosymm\\Title Card\\-1,1\C
 l,-9.64160388,8.26813603,10.53806366\C,-8.35432766,4.26036435,12.20968
 86\C,-9.14936257,3.93635086,11.09407722\C,-10.06335047,2.87360798,11.2
 1673097\C,-10.20722071,2.18513869,12.41661964\C,-9.42704595,2.53306449
 ,13.52033877\C,-8.49331246,3.56580759,13.40751017\H,-7.61855509,5.0649
 3133,12.14250123\H,-10.67723879,2.60127809,10.3535851\H,-10.93229619,1
 .37123413,12.49191838\H,-9.53565156,1.99188479,14.46266133\H,-7.871197
 15,3.8352215,14.264769\C,-9.0943677,4.6796178,9.83455948\C,-8.42690613
 ,5.83303466,9.62289385\H,-9.68512672,4.25494949,9.01501295\H,-8.454243
 78,6.32075232,8.64780743\H,-7.79088961,6.29147644,10.3794384\O,-0.9753
 574,-1.8073891,7.46249428\O,-8.38355738,-1.33039198,7.46219799\O,-7.01
 507546,1.34364858,10.47693833\O,-2.33429019,-4.39830907,10.55513455\W,
 -3.39379881,0.69721865,6.48535244\W,-5.989352,-3.82691862,6.56043185\W
 ,-3.60262329,0.87146582,11.41046979\W,-5.76346552,-3.87257952,11.48074
 628\W,-2.43320258,-2.59020505,6.39631362\W,-6.92752428,-0.53783424,6.3
 6391799\W,-6.80668509,-0.2549022,11.56824066\W,-2.54664992,-2.74218465
 ,11.60802668\O,-3.15793605,1.88310132,5.30774544\O,-6.1244537,-5.07679
 693,5.41784198\O,-2.67441413,1.71023914,12.56092363\O,-6.68125083,-4.6
 7595766,12.66231519\O,-2.66075567,-0.91552799,5.58867153\O,-6.69766095
 ,-2.27205723,5.62036595\O,-5.29649725,0.54728013,12.35851107\O,-4.0510
 6655,-3.53805506,12.4087418\O,0.32265824,-0.03189239,9.27533196\O,-9.6
 9041301,-3.0368462,9.32175339\O,-6.35056551,3.4253048,8.6664333\O,-3.0
 0623199,-6.49563242,8.74448758\O,-1.77203103,0.74011769,7.47403721\O,-
 7.59670915,-3.88304296,7.54237964\O,-4.48542205,2.19440295,10.42454524
 \O,-4.87159131,-5.23654124,10.52898079\O,-1.60383181,-3.52760459,5.245
 71942\O,-7.80363399,0.27087603,5.16874768\O,-8.0248279,-0.16205323,12.
 74791727\O,-1.31516839,-2.86409706,12.77213425\W,-1.23760012,-0.547073
 92,8.83933736\W,-8.12976122,-2.53506629,8.87344798\W,-5.87389041,1.853
 68658,9.0442564\W,-3.49095553,-4.92115509,9.16254123\O,-4.21340419,-3.
 11757713,6.07189082\O,-5.1432906,-0.06116794,6.01865802\O,-6.16616491,
 -2.00471276,11.91431009\O,-3.16832438,-0.99298673,11.9152193\O,-4.3463
 3269,1.57933024,7.83805995\O,-5.00896305,-4.68959416,7.92429028\O,-2.3
 1042077,0.56117612,10.07511389\O,-7.04483455,-3.61741975,10.13120168\O
 ,-2.57205739,-3.91174731,7.86566891\O,-6.80314611,0.79157011,7.8020375
 2\O,-7.8179644,-1.17931074,10.14510052\O,-1.54819018,-1.87867546,10.14
 234397\O,-3.35080497,-1.16243757,8.01369419\O,-6.01063211,-1.96452721,
 8.03387866\O,-5.10826783,-0.21273167,9.94215668\O,-4.23716443,-2.85178
 628,9.97621855\K,-3.21590687,-6.13537299,5.64824818\K,-0.12204893,0.03
 054409,12.3220465\K,-9.28379421,-2.82046636,12.42012969\V,-4.67877707,
 -1.54459307,8.99000271\\Version=ES64L-G16RevC.01\HF=-7327.7019443\RMSD
 =4.511e-09\RMSF=6.012e-03\Dipole=9.9817121,-21.8867654,2.4207432\Quadr
 upole=-68.0898448,44.791372,23.2984728,331.230101,333.6439669,-354.061
 913\PG=C01 [X(C8H8Cl1K3O40V1W12)]\\@
 The archive entry for this job was punched.


 SOME THINGS ARE EASY, THEY ARE ONLY HARD TO DO.
            -- A. EINSTEIN TO J. O. HIRSCHFELDER
 THE ONLY TROUBLE WITH A SURE THING IS THE UNCERTAINTY.
     -- FROM A TEABAG (BELONGING TO W.H.?)
 Job cpu time:       0 days  9 hours  5 minutes 14.5 seconds.
 Elapsed time:       0 days  0 hours 10 minutes 19.5 seconds.
 File lengths (MBytes):  RWF=   1257 Int=      0 D2E=      0 Chk=    249 Scr=      1
 Normal termination of Gaussian 16 at Sun Jun  2 23:00:45 2024.
