 Entering Gaussian System, Link 0=g16
 Input=JOBS/59_B.gjf
 Output=JOBS/59_B.log
 Initial command:
 /data/app/gaussian/C01-avx2//g16/l1.exe "/tmp/Gau-692045.inp" -scrdir="/tmp/"
 Entering Link 1 = /data/app/gaussian/C01-avx2//g16/l1.exe PID=    692046.
  
 Copyright (c) 1988-2019, Gaussian, Inc.  All Rights Reserved.
  
 This is part of the Gaussian(R) 16 program.  It is based on
 the Gaussian(R) 09 system (copyright 2009, Gaussian, Inc.),
 the Gaussian(R) 03 system (copyright 2003, Gaussian, Inc.),
 the Gaussian(R) 98 system (copyright 1998, Gaussian, Inc.),
 the Gaussian(R) 94 system (copyright 1995, Gaussian, Inc.),
 the Gaussian 92(TM) system (copyright 1992, Gaussian, Inc.),
 the Gaussian 90(TM) system (copyright 1990, Gaussian, Inc.),
 the Gaussian 88(TM) system (copyright 1988, Gaussian, Inc.),
 the Gaussian 86(TM) system (copyright 1986, Carnegie Mellon
 University), and the Gaussian 82(TM) system (copyright 1983,
 Carnegie Mellon University). Gaussian is a federally registered
 trademark of Gaussian, Inc.
  
 This software contains proprietary and confidential information,
 including trade secrets, belonging to Gaussian, Inc.
  
 This software is provided under written license and may be
 used, copied, transmitted, or stored only in accord with that
 written license.
  
 The following legend is applicable only to US Government
 contracts under FAR:
  
                    RESTRICTED RIGHTS LEGEND
  
 Use, reproduction and disclosure by the US Government is
 subject to restrictions as set forth in subparagraphs (a)
 and (c) of the Commercial Computer Software - Restricted
 Rights clause in FAR 52.227-19.
  
 Gaussian, Inc.
 340 Quinnipiac St., Bldg. 40, Wallingford CT 06492
  
  
 ---------------------------------------------------------------
 Warning -- This program may not be used in any manner that
 competes with the business of Gaussian, Inc. or will provide
 assistance to any competitor of Gaussian, Inc.  The licensee
 of this program is prohibited from giving any competitor of
 Gaussian, Inc. access to this program.  By using this program,
 the user acknowledges that Gaussian, Inc. is engaged in the
 business of creating and licensing software in the field of
 computational chemistry and represents and warrants to the
 licensee that it is not a competitor of Gaussian, Inc. and that
 it will not use this program in any manner prohibited above.
 ---------------------------------------------------------------
  

 Cite this work as:
 Gaussian 16, Revision C.01,
 M. J. Frisch, G. W. Trucks, H. B. Schlegel, G. E. Scuseria, 
 M. A. Robb, J. R. Cheeseman, G. Scalmani, V. Barone, 
 G. A. Petersson, H. Nakatsuji, X. Li, M. Caricato, A. V. Marenich, 
 J. Bloino, B. G. Janesko, R. Gomperts, B. Mennucci, H. P. Hratchian, 
 J. V. Ortiz, A. F. Izmaylov, J. L. Sonnenberg, D. Williams-Young, 
 F. Ding, F. Lipparini, F. Egidi, J. Goings, B. Peng, A. Petrone, 
 T. Henderson, D. Ranasinghe, V. G. Zakrzewski, J. Gao, N. Rega, 
 G. Zheng, W. Liang, M. Hada, M. Ehara, K. Toyota, R. Fukuda, 
 J. Hasegawa, M. Ishida, T. Nakajima, Y. Honda, O. Kitao, H. Nakai, 
 T. Vreven, K. Throssell, J. A. Montgomery, Jr., J. E. Peralta, 
 F. Ogliaro, M. J. Bearpark, J. J. Heyd, E. N. Brothers, K. N. Kudin, 
 V. N. Staroverov, T. A. Keith, R. Kobayashi, J. Normand, 
 K. Raghavachari, A. P. Rendell, J. C. Burant, S. S. Iyengar, 
 J. Tomasi, M. Cossi, J. M. Millam, M. Klene, C. Adamo, R. Cammi, 
 J. W. Ochterski, R. L. Martin, K. Morokuma, O. Farkas, 
 J. B. Foresman, and D. J. Fox, Gaussian, Inc., Wallingford CT, 2019.
 
 ******************************************
 Gaussian 16:  ES64L-G16RevC.01  3-Jul-2019
                 2-Jun-2024 
 ******************************************
 %chk=b.chk
 %nprocshared=56
 Will use up to   56 processors via shared memory.
 %mem=96gb
 ----------------------------------------------------------------------
 # def2svp wb97xd scrf=(smd,solvent=acetonitrile) g09default scf=(xqc,m
 axcycle=64) force guess=read nosymm
 ----------------------------------------------------------------------
 1/10=7,30=1,38=1,158=3,167=1/1,3;
 2/12=2,15=1,17=6,18=5,40=1/2;
 3/5=43,7=101,11=2,25=1,27=10,30=1,70=32201,71=1,72=2,74=-58,75=-4,116=-2,158=3/1,2,3;
 4/5=1,60=-1/1;
 5/5=2,7=64,8=3,13=1,38=6,53=2,87=10/2,8;
 6/7=2,8=2,9=2,10=2,28=1,87=10/1;
 7/29=1,30=1,87=10/1,2,3,16;
 1/10=7,30=1,158=3,167=1/3;
 99//99;
 Using 2006 physical constants.
 ----------
 Title Card
 ----------
 Symbolic Z-matrix:
 Charge = -1 Multiplicity = 1
 17                   -9.6416    8.26814   10.53806 
 6                    -8.35433   4.26036   12.20969 
 6                    -9.14936   3.93635   11.09408 
 6                    -10.06335   2.87361   11.21673 
 6                    -10.20722   2.18514   12.41662 
 6                    -9.42705   2.53306   13.52034 
 6                    -8.49331   3.56581   13.40751 
 1                    -7.61856   5.06493   12.1425 
 1                    -10.67724   2.60128   10.35359 
 1                    -10.9323   1.37123   12.49192 
 1                    -9.53565   1.99188   14.46266 
 1                    -7.8712    3.83522   14.26477 
 6                    -9.09437   4.67962   9.83456 
 6                    -8.42691   5.83303   9.62289 
 1                    -9.68513   4.25495   9.01501 
 1                    -8.45424   6.32075   8.64781 
 1                    -7.79089   6.29148   10.37944 
 8                    -0.97536  -1.80739   7.46249 
 8                    -8.38356  -1.33039   7.4622 
 8                    -7.01508   1.34365   10.47694 
 8                    -2.33429  -4.39831   10.55513 
 74                   -3.3938    0.69722   6.48535 
 74                   -5.98935  -3.82692   6.56043 
 74                   -3.60262   0.87147   11.41047 
 74                   -5.76347  -3.87258   11.48075 
 74                   -2.4332   -2.59021   6.39631 
 74                   -6.92752  -0.53783   6.36392 
 74                   -6.80669  -0.2549    11.56824 
 74                   -2.54665  -2.74218   11.60803 
 8                    -3.15794   1.8831    5.30775 
 8                    -6.12445  -5.0768    5.41784 
 8                    -2.67441   1.71024   12.56092 
 8                    -6.68125  -4.67596   12.66232 
 8                    -2.66076  -0.91553   5.58867 
 8                    -6.69766  -2.27206   5.62037 
 8                    -5.2965    0.54728   12.35851 
 8                    -4.05107  -3.53806   12.40874 
 8                     0.32266  -0.03189   9.27533 
 8                    -9.69041  -3.03685   9.32175 
 8                    -6.35057   3.4253    8.66643 
 8                    -3.00623  -6.49563   8.74449 
 8                    -1.77203   0.74012   7.47404 
 8                    -7.59671  -3.88304   7.54238 
 8                    -4.48542   2.1944    10.42455 
 8                    -4.87159  -5.23654   10.52898 
 8                    -1.60383  -3.5276    5.24572 
 8                    -7.80363   0.27088   5.16875 
 8                    -8.02483  -0.16205   12.74792 
 8                    -1.31517  -2.8641    12.77213 
 74                   -1.2376   -0.54707   8.83934 
 74                   -8.12976  -2.53507   8.87345 
 74                   -5.87389   1.85369   9.04426 
 74                   -3.49096  -4.92116   9.16254 
 8                    -4.2134   -3.11758   6.07189 
 8                    -5.14329  -0.06117   6.01866 
 8                    -6.16616  -2.00471   11.91431 
 8                    -3.16832  -0.99299   11.91522 
 8                    -4.34633   1.57933   7.83806 
 8                    -5.00896  -4.68959   7.92429 
 8                    -2.31042   0.56118   10.07511 
 8                    -7.04483  -3.61742   10.1312 
 8                    -2.57206  -3.91175   7.86567 
 8                    -6.80315   0.79157   7.80204 
 8                    -7.81796  -1.17931   10.1451 
 8                    -1.54819  -1.87868   10.14234 
 8                    -3.3508   -1.16244   8.01369 
 8                    -6.01063  -1.96453   8.03388 
 8                    -5.10827  -0.21273   9.94216 
 8                    -4.23716  -2.85179   9.97622 
 19                   -3.21591  -6.13537   5.64825 
 19                   -0.12205   0.03054   12.32205 
 19                   -9.28379  -2.82047   12.42013 
 23                   -4.67878  -1.54459   8.99 
 

 GradGradGradGradGradGradGradGradGradGradGradGradGradGradGradGradGradGrad
 Berny optimization.
 Initialization pass.
 Trust Radius=3.00D-01 FncErr=1.00D-07 GrdErr=1.00D-07 EigMax=2.50D+02 EigMin=1.00D-04
 Number of steps in this run=      2 maximum allowed number of steps=      2.
 GradGradGradGradGradGradGradGradGradGradGradGradGradGradGradGradGradGrad

 Symmetry turned off by external request.
 Stoichiometry    C8H8ClK3O40VW12(1-)
 Framework group  C1[X(C8H8ClK3O40VW12)]
 Deg. of freedom   213
 Full point group                 C1      NOp   1
                          Input orientation:                          
 ---------------------------------------------------------------------
 Center     Atomic      Atomic             Coordinates (Angstroms)
 Number     Number       Type             X           Y           Z
 ---------------------------------------------------------------------
      1         17           0       -9.641604    8.268136   10.538064
      2          6           0       -8.354328    4.260364   12.209689
      3          6           0       -9.149363    3.936351   11.094077
      4          6           0      -10.063350    2.873608   11.216731
      5          6           0      -10.207221    2.185139   12.416620
      6          6           0       -9.427046    2.533064   13.520339
      7          6           0       -8.493312    3.565808   13.407510
      8          1           0       -7.618555    5.064931   12.142501
      9          1           0      -10.677239    2.601278   10.353585
     10          1           0      -10.932296    1.371234   12.491918
     11          1           0       -9.535652    1.991885   14.462661
     12          1           0       -7.871197    3.835221   14.264769
     13          6           0       -9.094368    4.679618    9.834559
     14          6           0       -8.426906    5.833035    9.622894
     15          1           0       -9.685127    4.254949    9.015013
     16          1           0       -8.454244    6.320752    8.647807
     17          1           0       -7.790890    6.291476   10.379438
     18          8           0       -0.975357   -1.807389    7.462494
     19          8           0       -8.383557   -1.330392    7.462198
     20          8           0       -7.015075    1.343649   10.476938
     21          8           0       -2.334290   -4.398309   10.555135
     22         74           0       -3.393799    0.697219    6.485352
     23         74           0       -5.989352   -3.826919    6.560432
     24         74           0       -3.602623    0.871466   11.410470
     25         74           0       -5.763466   -3.872580   11.480746
     26         74           0       -2.433203   -2.590205    6.396314
     27         74           0       -6.927524   -0.537834    6.363918
     28         74           0       -6.806685   -0.254902   11.568241
     29         74           0       -2.546650   -2.742185   11.608027
     30          8           0       -3.157936    1.883101    5.307745
     31          8           0       -6.124454   -5.076797    5.417842
     32          8           0       -2.674414    1.710239   12.560924
     33          8           0       -6.681251   -4.675958   12.662315
     34          8           0       -2.660756   -0.915528    5.588672
     35          8           0       -6.697661   -2.272057    5.620366
     36          8           0       -5.296497    0.547280   12.358511
     37          8           0       -4.051067   -3.538055   12.408742
     38          8           0        0.322658   -0.031892    9.275332
     39          8           0       -9.690413   -3.036846    9.321753
     40          8           0       -6.350566    3.425305    8.666433
     41          8           0       -3.006232   -6.495632    8.744488
     42          8           0       -1.772031    0.740118    7.474037
     43          8           0       -7.596709   -3.883043    7.542380
     44          8           0       -4.485422    2.194403   10.424545
     45          8           0       -4.871591   -5.236541   10.528981
     46          8           0       -1.603832   -3.527605    5.245719
     47          8           0       -7.803634    0.270876    5.168748
     48          8           0       -8.024828   -0.162053   12.747917
     49          8           0       -1.315168   -2.864097   12.772134
     50         74           0       -1.237600   -0.547074    8.839337
     51         74           0       -8.129761   -2.535066    8.873448
     52         74           0       -5.873890    1.853687    9.044256
     53         74           0       -3.490956   -4.921155    9.162541
     54          8           0       -4.213404   -3.117577    6.071891
     55          8           0       -5.143291   -0.061168    6.018658
     56          8           0       -6.166165   -2.004713   11.914310
     57          8           0       -3.168324   -0.992987   11.915219
     58          8           0       -4.346333    1.579330    7.838060
     59          8           0       -5.008963   -4.689594    7.924290
     60          8           0       -2.310421    0.561176   10.075114
     61          8           0       -7.044835   -3.617420   10.131202
     62          8           0       -2.572057   -3.911747    7.865669
     63          8           0       -6.803146    0.791570    7.802038
     64          8           0       -7.817964   -1.179311   10.145101
     65          8           0       -1.548190   -1.878675   10.142344
     66          8           0       -3.350805   -1.162438    8.013694
     67          8           0       -6.010632   -1.964527    8.033879
     68          8           0       -5.108268   -0.212732    9.942157
     69          8           0       -4.237164   -2.851786    9.976219
     70         19           0       -3.215907   -6.135373    5.648248
     71         19           0       -0.122049    0.030544   12.322047
     72         19           0       -9.283794   -2.820466   12.420130
     73         23           0       -4.678777   -1.544593    8.990003
 ---------------------------------------------------------------------
 Rotational constants (GHZ):           0.0172104           0.0132172           0.0129950
 Standard basis: def2SVP (5D, 7F)
  1217 basis functions,  2313 primitive gaussians,  1337 cartesian basis functions
   321 alpha electrons      321 beta electrons
       nuclear repulsion energy     20975.5653619809 Hartrees.
 NAtoms=   73 NActive=   73 NUniq=   73 SFac= 1.00D+00 NAtFMM=   60 NAOKFM=T Big=T
 Integral buffers will be    131072 words long.
 Raffenetti 2 integral format.
 Two-electron integral symmetry is turned off.
 Nuclear repulsion after empirical dispersion term =    20975.2890309308 Hartrees.
 Force PCM accuracy= 1.00D-10.
 ------------------------------------------------------------------------------
 Polarizable Continuum Model (PCM)
 =================================
 Model                : PCM (using non-symmetric T matrix).
 Atomic radii         : SMD-Coulomb.
 Polarization charges : Total charges.
 Charge compensation  : None.
 Solution method      : On-the-fly selection.
 Cavity type          : VdW (van der Waals Surface) (Alpha=1.000).
 Cavity algorithm     : GePol (No added spheres)
                        Default sphere list used, NSphG=   73.
                        Lebedev-Laikov grids with approx.  5.0 points / Ang**2.
                        Smoothing algorithm: York/Karplus (Gamma=1.0000).
                        Polarization charges: spherical gaussians, with
                                              point-specific exponents (IZeta= 3).
                        Self-potential: point-specific (ISelfS= 7).
                        Self-field    : sphere-specific E.n sum rule (ISelfD= 2).
 1st derivatives      : Analytical E(r).r(x)/FMM algorithm (CHGder, D1EAlg=3).
                        Cavity 1st derivative terms included.
 Solvent              : Acetonitrile, Eps=  35.688000 Eps(inf)=   1.806874
 ------------------------------------------------------------------------------
 ------------------------------------------------------------------------------
 Atomic radii for non-electrostatic terms: SMD-CDS.
 ------------------------------------------------------------------------------
 Nuclear repulsion after PCM non-electrostatic terms =    20975.2833293460 Hartrees.
 One-electron integrals computed using PRISM.
   1 Symmetry operations used in ECPInt.
 ECPInt:  NShTT=  127765 NPrTT=  468030 LenC2=   96506 LenP2D=  220840.
 LDataN:  DoStor=T MaxTD1= 8 Len=  415
 NBasis=  1217 RedAO= T EigKep=  1.38D-04  NBF=  1217
 NBsUse=  1217 1.00D-06 EigRej= -1.00D+00 NBFU=  1217
 Defaulting to unpruned grid for atomic number  74.
 Defaulting to unpruned grid for atomic number  74.
 Defaulting to unpruned grid for atomic number  74.
 Defaulting to unpruned grid for atomic number  74.
 Defaulting to unpruned grid for atomic number  74.
 Defaulting to unpruned grid for atomic number  74.
 Defaulting to unpruned grid for atomic number  74.
 Defaulting to unpruned grid for atomic number  74.
 Initial guess from the checkpoint file:  "b.chk"
 B after Tr=     0.001146   -0.000487    0.000276
         Rot=    1.000000   -0.000018    0.000012    0.000031 Ang=  -0.00 deg.
 Initial guess <Sx>= 0.0000 <Sy>= 0.0000 <Sz>= 0.0000 <S**2>= 1.0222 S= 0.6279
 Requested convergence on RMS density matrix=1.00D-08 within  64 cycles.
 Requested convergence on MAX density matrix=1.00D-06.
 Requested convergence on             energy=1.00D-06.
 No special actions if energy rises.
 Defaulting to unpruned grid for atomic number  74.
 Defaulting to unpruned grid for atomic number  74.
 Defaulting to unpruned grid for atomic number  74.
 Defaulting to unpruned grid for atomic number  74.
 Defaulting to unpruned grid for atomic number  74.
 Defaulting to unpruned grid for atomic number  74.
 Defaulting to unpruned grid for atomic number  74.
 Defaulting to unpruned grid for atomic number  74.
 Defaulting to unpruned grid for atomic number  74.
 Defaulting to unpruned grid for atomic number  74.
 Defaulting to unpruned grid for atomic number  74.
 Defaulting to unpruned grid for atomic number  74.
 Defaulting to unpruned grid for atomic number  74.
 Defaulting to unpruned grid for atomic number  74.
 Defaulting to unpruned grid for atomic number  74.
 Defaulting to unpruned grid for atomic number  74.
 Defaulting to unpruned grid for atomic number  74.
 Defaulting to unpruned grid for atomic number  74.
 Defaulting to unpruned grid for atomic number  74.
 Defaulting to unpruned grid for atomic number  74.
 Defaulting to unpruned grid for atomic number  74.
 Defaulting to unpruned grid for atomic number  74.
 Defaulting to unpruned grid for atomic number  74.
 Defaulting to unpruned grid for atomic number  74.
 Defaulting to unpruned grid for atomic number  74.
 Defaulting to unpruned grid for atomic number  74.
 Defaulting to unpruned grid for atomic number  74.
 Defaulting to unpruned grid for atomic number  74.
 Defaulting to unpruned grid for atomic number  74.
 Defaulting to unpruned grid for atomic number  74.
 Defaulting to unpruned grid for atomic number  74.
 Defaulting to unpruned grid for atomic number  74.
 Defaulting to unpruned grid for atomic number  74.
 Defaulting to unpruned grid for atomic number  74.
 Defaulting to unpruned grid for atomic number  74.
 Defaulting to unpruned grid for atomic number  74.
 Defaulting to unpruned grid for atomic number  74.
 Defaulting to unpruned grid for atomic number  74.
 Defaulting to unpruned grid for atomic number  74.
 Defaulting to unpruned grid for atomic number  74.
 Defaulting to unpruned grid for atomic number  74.
 Defaulting to unpruned grid for atomic number  74.
 Defaulting to unpruned grid for atomic number  74.
 Defaulting to unpruned grid for atomic number  74.
 Defaulting to unpruned grid for atomic number  74.
 Defaulting to unpruned grid for atomic number  74.
 Defaulting to unpruned grid for atomic number  74.
 Defaulting to unpruned grid for atomic number  74.
 Defaulting to unpruned grid for atomic number  74.
 Defaulting to unpruned grid for atomic number  74.
 Defaulting to unpruned grid for atomic number  74.
 Defaulting to unpruned grid for atomic number  74.
 Defaulting to unpruned grid for atomic number  74.
 Defaulting to unpruned grid for atomic number  74.
 Defaulting to unpruned grid for atomic number  74.
 Defaulting to unpruned grid for atomic number  74.
 Inv3:  Mode=1 IEnd=    87480000.
 Iteration    1 A*A^-1 deviation from unit magnitude is 3.89D-15 for    360.
 Iteration    1 A*A^-1 deviation from orthogonality  is 3.66D-15 for   3598   3457.
 Iteration    1 A^-1*A deviation from unit magnitude is 3.77D-15 for   3961.
 Iteration    1 A^-1*A deviation from orthogonality  is 1.89D-11 for    894    848.
 Restarting incremental Fock formation.
 Error on total polarization charges =  0.01568
 SCF Done:  E(UwB97XD) =  -7327.70193070     A.U. after   33 cycles
            NFock= 33  Conv=0.17D-08     -V/T= 2.0831
 <Sx>= 0.0000 <Sy>= 0.0000 <Sz>= 0.0000 <S**2>= 1.0223 S= 0.6280
 <L.S>=  0.00000000000    
 SMD-CDS (non-electrostatic) energy       (kcal/mol) =      -3.58
 (included in total energy above)
 Annihilation of the first spin contaminant:
 S**2 before annihilation     1.0223,   after     0.1783
 QCSCF skips out because SCF is already converged.

 **********************************************************************

            Population analysis using the SCF Density.

 **********************************************************************

 Alpha  occ. eigenvalues -- -197.10863-129.99070-129.99066-129.99056-101.62085
 Alpha  occ. eigenvalues --  -22.44531 -19.28538 -19.28510 -19.28451 -19.28438
 Alpha  occ. eigenvalues --  -19.28405 -19.28385 -19.28370 -19.28363 -19.28355
 Alpha  occ. eigenvalues --  -19.28273 -19.28253 -19.28173 -19.26947 -19.26927
 Alpha  occ. eigenvalues --  -19.26922 -19.26866 -19.26858 -19.26846 -19.26845
 Alpha  occ. eigenvalues --  -19.26841 -19.26823 -19.26820 -19.26813 -19.26794
 Alpha  occ. eigenvalues --  -19.26794 -19.26784 -19.26783 -19.26779 -19.26771
 Alpha  occ. eigenvalues --  -19.26761 -19.26758 -19.26746 -19.26737 -19.26720
 Alpha  occ. eigenvalues --  -19.26660 -19.26630 -19.24751 -19.24714 -19.24689
 Alpha  occ. eigenvalues --  -19.24665 -18.94106 -18.93024 -18.92976 -13.36479
 Alpha  occ. eigenvalues --  -13.36473 -13.36458 -10.69406 -10.69402 -10.69401
 Alpha  occ. eigenvalues --  -10.69401 -10.69397 -10.69395 -10.69386 -10.69382
 Alpha  occ. eigenvalues --  -10.69376 -10.33037 -10.32222 -10.31994 -10.31042
 Alpha  occ. eigenvalues --  -10.31014 -10.30988 -10.30594 -10.30526  -9.52496
 Alpha  occ. eigenvalues --   -7.27379  -7.27039  -7.27035  -3.21122  -3.21103
 Alpha  occ. eigenvalues --   -3.21070  -3.21051  -3.21035  -3.21025  -3.21013
 Alpha  occ. eigenvalues --   -3.21011  -3.21003  -3.20869  -3.20866  -3.20838
 Alpha  occ. eigenvalues --   -2.78817  -1.85358  -1.85294  -1.85285  -1.85258
 Alpha  occ. eigenvalues --   -1.85152  -1.85081  -1.85064  -1.85046  -1.85033
 Alpha  occ. eigenvalues --   -1.85023  -1.85005  -1.84953  -1.84397  -1.84285
 Alpha  occ. eigenvalues --   -1.84274  -1.84256  -1.84223  -1.84212  -1.84155
 Alpha  occ. eigenvalues --   -1.84139  -1.84112  -1.84104  -1.84073  -1.84063
 Alpha  occ. eigenvalues --   -1.83965  -1.83924  -1.83886  -1.83881  -1.83866
 Alpha  occ. eigenvalues --   -1.83834  -1.83810  -1.83799  -1.83792  -1.83696
 Alpha  occ. eigenvalues --   -1.83685  -1.83677  -1.81978  -1.81642  -1.81615
 Alpha  occ. eigenvalues --   -1.50184  -1.50180  -1.50168  -1.08630  -1.07008
 Alpha  occ. eigenvalues --   -1.06965  -1.06924  -1.06022  -1.06008  -1.05985
 Alpha  occ. eigenvalues --   -1.04588  -1.04577  -1.04570  -1.03989  -1.03983
 Alpha  occ. eigenvalues --   -1.03717  -1.03377  -1.03342  -1.03322  -1.03038
 Alpha  occ. eigenvalues --   -1.03012  -1.02273  -1.02240  -1.02232  -1.02107
 Alpha  occ. eigenvalues --   -1.02017  -1.01991  -1.01915  -1.01902  -1.01783
 Alpha  occ. eigenvalues --   -1.01770  -1.01753  -1.01626  -1.01583  -1.01575
 Alpha  occ. eigenvalues --   -1.01312  -1.00822  -1.00766  -1.00707  -1.00700
 Alpha  occ. eigenvalues --   -1.00008  -0.99954  -0.99890  -0.96216  -0.89317
 Alpha  occ. eigenvalues --   -0.85631  -0.85628  -0.85621  -0.85475  -0.85474
 Alpha  occ. eigenvalues --   -0.85473  -0.85471  -0.85458  -0.85431  -0.84297
 Alpha  occ. eigenvalues --   -0.82511  -0.81003  -0.71947  -0.69637  -0.65089
 Alpha  occ. eigenvalues --   -0.62341  -0.61732  -0.61664  -0.61639  -0.60620
 Alpha  occ. eigenvalues --   -0.58985  -0.58965  -0.58947  -0.58892  -0.58821
 Alpha  occ. eigenvalues --   -0.58801  -0.58775  -0.58735  -0.58561  -0.57390
 Alpha  occ. eigenvalues --   -0.57347  -0.57324  -0.57035  -0.56794  -0.56508
 Alpha  occ. eigenvalues --   -0.56460  -0.56422  -0.56032  -0.55882  -0.55368
 Alpha  occ. eigenvalues --   -0.55358  -0.55319  -0.54446  -0.54168  -0.54142
 Alpha  occ. eigenvalues --   -0.53971  -0.53715  -0.53663  -0.53653  -0.52760
 Alpha  occ. eigenvalues --   -0.52659  -0.52612  -0.52506  -0.52466  -0.51487
 Alpha  occ. eigenvalues --   -0.51484  -0.51462  -0.51380  -0.51324  -0.50805
 Alpha  occ. eigenvalues --   -0.50575  -0.50536  -0.50491  -0.50412  -0.50343
 Alpha  occ. eigenvalues --   -0.50285  -0.50072  -0.50033  -0.50004  -0.49753
 Alpha  occ. eigenvalues --   -0.49661  -0.49622  -0.49512  -0.49493  -0.49284
 Alpha  occ. eigenvalues --   -0.49239  -0.49202  -0.49139  -0.49094  -0.49018
 Alpha  occ. eigenvalues --   -0.48718  -0.48558  -0.48534  -0.48470  -0.47670
 Alpha  occ. eigenvalues --   -0.47651  -0.47176  -0.46483  -0.46048  -0.46029
 Alpha  occ. eigenvalues --   -0.45883  -0.45864  -0.45758  -0.45632  -0.45227
 Alpha  occ. eigenvalues --   -0.45152  -0.45147  -0.44797  -0.44596  -0.44491
 Alpha  occ. eigenvalues --   -0.44479  -0.44444  -0.44298  -0.44228  -0.44201
 Alpha  occ. eigenvalues --   -0.43458  -0.43132  -0.42549  -0.42518  -0.42443
 Alpha  occ. eigenvalues --   -0.42331  -0.42215  -0.42178  -0.42168  -0.41641
 Alpha  occ. eigenvalues --   -0.41626  -0.41591  -0.41039  -0.40991  -0.40780
 Alpha  occ. eigenvalues --   -0.40767  -0.40744  -0.40384  -0.40365  -0.40333
 Alpha  occ. eigenvalues --   -0.40211  -0.40179  -0.40168  -0.40127  -0.39867
 Alpha  occ. eigenvalues --   -0.39366  -0.39265  -0.39233  -0.39136  -0.39055
 Alpha  occ. eigenvalues --   -0.38914  -0.38886  -0.38808  -0.38760  -0.38702
 Alpha  occ. eigenvalues --   -0.38311  -0.38283  -0.38239  -0.38060  -0.37216
 Alpha  occ. eigenvalues --   -0.37187  -0.34715  -0.34676  -0.33675  -0.30438
 Alpha  occ. eigenvalues --   -0.25788
 Alpha virt. eigenvalues --   -0.12021  -0.06374  -0.06315  -0.04869  -0.04834
 Alpha virt. eigenvalues --   -0.04743  -0.01518  -0.01414  -0.01375  -0.01150
 Alpha virt. eigenvalues --   -0.00924  -0.00919  -0.00881  -0.00161  -0.00092
 Alpha virt. eigenvalues --   -0.00053   0.00671   0.00710   0.00735   0.00911
 Alpha virt. eigenvalues --    0.01003   0.01163   0.01762   0.01801   0.01861
 Alpha virt. eigenvalues --    0.02486   0.02735   0.02793   0.02874   0.03483
 Alpha virt. eigenvalues --    0.03564   0.03721   0.03853   0.03933   0.04305
 Alpha virt. eigenvalues --    0.04318   0.04367   0.04388   0.04575   0.05026
 Alpha virt. eigenvalues --    0.05088   0.05982   0.06445   0.07921   0.08141
 Alpha virt. eigenvalues --    0.08452   0.08580   0.08778   0.08861   0.09279
 Alpha virt. eigenvalues --    0.09711   0.09865   0.09880   0.09916   0.10011
 Alpha virt. eigenvalues --    0.10042   0.10178   0.10351   0.10891   0.10945
 Alpha virt. eigenvalues --    0.11542   0.11634   0.11930   0.12221   0.12317
 Alpha virt. eigenvalues --    0.12457   0.12480   0.12520   0.12903   0.13299
 Alpha virt. eigenvalues --    0.13397   0.13590   0.14073   0.14297   0.14766
 Alpha virt. eigenvalues --    0.14916   0.14960   0.15194   0.15344   0.15907
 Alpha virt. eigenvalues --    0.16118   0.16765   0.17039   0.17736   0.17917
 Alpha virt. eigenvalues --    0.18309   0.18430   0.18612   0.18744   0.18940
 Alpha virt. eigenvalues --    0.19290   0.19376   0.19492   0.19550   0.19590
 Alpha virt. eigenvalues --    0.19712   0.19850   0.20031   0.20671   0.20969
 Alpha virt. eigenvalues --    0.21140   0.21313   0.21360   0.21597   0.21644
 Alpha virt. eigenvalues --    0.21717   0.21927   0.21977   0.22208   0.22273
 Alpha virt. eigenvalues --    0.22339   0.22779   0.23173   0.23232   0.23342
 Alpha virt. eigenvalues --    0.23381   0.23541   0.23762   0.23999   0.24257
 Alpha virt. eigenvalues --    0.24380   0.24585   0.24679   0.25027   0.25093
 Alpha virt. eigenvalues --    0.25341   0.25501   0.25564   0.26319   0.26676
 Alpha virt. eigenvalues --    0.26847   0.27123   0.27354   0.27674   0.27890
 Alpha virt. eigenvalues --    0.27981   0.28488   0.28690   0.28782   0.29222
 Alpha virt. eigenvalues --    0.29311   0.29336   0.29436   0.29577   0.29763
 Alpha virt. eigenvalues --    0.30066   0.30415   0.30727   0.31281   0.31532
 Alpha virt. eigenvalues --    0.31863   0.32200   0.32324   0.32791   0.33129
 Alpha virt. eigenvalues --    0.33638   0.34449   0.35508   0.36954   0.37067
 Alpha virt. eigenvalues --    0.38212   0.38633   0.38920   0.39350   0.39590
 Alpha virt. eigenvalues --    0.40443   0.41367   0.41771   0.41847   0.41958
 Alpha virt. eigenvalues --    0.42215   0.42490   0.42622   0.43398   0.43947
 Alpha virt. eigenvalues --    0.44207   0.44405   0.44863   0.45296   0.45551
 Alpha virt. eigenvalues --    0.45690   0.45778   0.45871   0.46505   0.46687
 Alpha virt. eigenvalues --    0.46995   0.47323   0.47923   0.47952   0.48246
 Alpha virt. eigenvalues --    0.48360   0.48536   0.48831   0.49042   0.49158
 Alpha virt. eigenvalues --    0.49482   0.49826   0.49912   0.50012   0.50040
 Alpha virt. eigenvalues --    0.50268   0.50377   0.50512   0.50692   0.50759
 Alpha virt. eigenvalues --    0.51201   0.51277   0.51642   0.51812   0.52001
 Alpha virt. eigenvalues --    0.52474   0.52740   0.52836   0.53029   0.53318
 Alpha virt. eigenvalues --    0.53764   0.54140   0.54282   0.54508   0.54686
 Alpha virt. eigenvalues --    0.54791   0.55435   0.55949   0.55984   0.56456
 Alpha virt. eigenvalues --    0.56636   0.56991   0.57081   0.57137   0.57582
 Alpha virt. eigenvalues --    0.58291   0.58721   0.58881   0.59081   0.59482
 Alpha virt. eigenvalues --    0.59940   0.60511   0.60779   0.61046   0.61621
 Alpha virt. eigenvalues --    0.61942   0.62815   0.63633   0.63956   0.64699
 Alpha virt. eigenvalues --    0.65045   0.65458   0.66432   0.66568   0.66637
 Alpha virt. eigenvalues --    0.68055   0.68309   0.68432   0.68767   0.69308
 Alpha virt. eigenvalues --    0.69459   0.69946   0.71109   0.71596   0.71686
 Alpha virt. eigenvalues --    0.72080   0.72293   0.72751   0.72861   0.73108
 Alpha virt. eigenvalues --    0.73214   0.73377   0.73514   0.73713   0.73859
 Alpha virt. eigenvalues --    0.74052   0.74317   0.75136   0.75671   0.75977
 Alpha virt. eigenvalues --    0.76140   0.76882   0.77177   0.78182   0.78395
 Alpha virt. eigenvalues --    0.78955   0.79278   0.79935   0.80287   0.80659
 Alpha virt. eigenvalues --    0.80735   0.81160   0.82026   0.82142   0.82315
 Alpha virt. eigenvalues --    0.83049   0.83371   0.83850   0.83993   0.84330
 Alpha virt. eigenvalues --    0.84592   0.84979   0.85424   0.86518   0.87100
 Alpha virt. eigenvalues --    0.87911   0.88219   0.89171   0.89705   0.89974
 Alpha virt. eigenvalues --    0.90245   0.90581   0.90668   0.91009   0.91769
 Alpha virt. eigenvalues --    0.91869   0.92261   0.92608   0.92637   0.92772
 Alpha virt. eigenvalues --    0.93263   0.93325   0.93461   0.93788   0.94738
 Alpha virt. eigenvalues --    0.95182   0.95487   0.95897   0.96571   0.97006
 Alpha virt. eigenvalues --    0.97175   0.97240   0.97473   0.97685   0.98506
 Alpha virt. eigenvalues --    0.99193   0.99410   0.99600   0.99885   1.00298
 Alpha virt. eigenvalues --    1.00457   1.00652   1.00739   1.00909   1.01012
 Alpha virt. eigenvalues --    1.01140   1.01289   1.01756   1.02218   1.02739
 Alpha virt. eigenvalues --    1.02831   1.03038   1.03462   1.03797   1.03923
 Alpha virt. eigenvalues --    1.04273   1.04375   1.04757   1.04871   1.05134
 Alpha virt. eigenvalues --    1.05195   1.05397   1.05565   1.06005   1.06511
 Alpha virt. eigenvalues --    1.06933   1.06987   1.07190   1.07396   1.07442
 Alpha virt. eigenvalues --    1.07712   1.07883   1.08202   1.08512   1.08864
 Alpha virt. eigenvalues --    1.08953   1.09178   1.09488   1.10154   1.10788
 Alpha virt. eigenvalues --    1.11136   1.11280   1.11939   1.12111   1.12316
 Alpha virt. eigenvalues --    1.12459   1.12827   1.13051   1.13065   1.13259
 Alpha virt. eigenvalues --    1.13477   1.13648   1.13802   1.13978   1.14155
 Alpha virt. eigenvalues --    1.14315   1.14783   1.15231   1.15366   1.16008
 Alpha virt. eigenvalues --    1.16349   1.16875   1.17432   1.17839   1.18474
 Alpha virt. eigenvalues --    1.18892   1.19683   1.19729   1.20070   1.20271
 Alpha virt. eigenvalues --    1.20947   1.22280   1.22778   1.22983   1.23059
 Alpha virt. eigenvalues --    1.23202   1.23398   1.23657   1.23766   1.24611
 Alpha virt. eigenvalues --    1.25453   1.26133   1.27252   1.27777   1.27874
 Alpha virt. eigenvalues --    1.28470   1.29276   1.29762   1.30158   1.30457
 Alpha virt. eigenvalues --    1.30564   1.30743   1.31030   1.31236   1.31940
 Alpha virt. eigenvalues --    1.32056   1.32193   1.32244   1.32347   1.32463
 Alpha virt. eigenvalues --    1.32678   1.32739   1.33131   1.33368   1.34519
 Alpha virt. eigenvalues --    1.34881   1.35003   1.35253   1.35475   1.35621
 Alpha virt. eigenvalues --    1.35841   1.35891   1.36295   1.36427   1.36530
 Alpha virt. eigenvalues --    1.36892   1.37002   1.37871   1.37940   1.38015
 Alpha virt. eigenvalues --    1.38241   1.38466   1.38792   1.38817   1.38893
 Alpha virt. eigenvalues --    1.39030   1.39325   1.39537   1.39715   1.39826
 Alpha virt. eigenvalues --    1.40188   1.40418   1.40519   1.40818   1.41123
 Alpha virt. eigenvalues --    1.41180   1.41246   1.41521   1.41718   1.41771
 Alpha virt. eigenvalues --    1.42087   1.42359   1.42505   1.42576   1.42646
 Alpha virt. eigenvalues --    1.43064   1.43279   1.43554   1.43570   1.43954
 Alpha virt. eigenvalues --    1.44472   1.44673   1.45262   1.45330   1.45513
 Alpha virt. eigenvalues --    1.45614   1.46147   1.46251   1.46731   1.47268
 Alpha virt. eigenvalues --    1.47734   1.48125   1.49647   1.49704   1.49962
 Alpha virt. eigenvalues --    1.50227   1.50680   1.51789   1.52213   1.52288
 Alpha virt. eigenvalues --    1.52484   1.53087   1.53308   1.53845   1.55311
 Alpha virt. eigenvalues --    1.55586   1.57391   1.58172   1.58178   1.58311
 Alpha virt. eigenvalues --    1.58629   1.58908   1.59032   1.59351   1.60102
 Alpha virt. eigenvalues --    1.60560   1.60909   1.61435   1.61625   1.62051
 Alpha virt. eigenvalues --    1.62139   1.62285   1.62919   1.63285   1.63919
 Alpha virt. eigenvalues --    1.64548   1.64747   1.64873   1.65370   1.65665
 Alpha virt. eigenvalues --    1.65882   1.66875   1.68039   1.68462   1.69430
 Alpha virt. eigenvalues --    1.69976   1.70585   1.71032   1.72459   1.73161
 Alpha virt. eigenvalues --    1.73271   1.73516   1.74157   1.74273   1.74905
 Alpha virt. eigenvalues --    1.75747   1.76406   1.77672   1.77866   1.78081
 Alpha virt. eigenvalues --    1.78556   1.78757   1.79165   1.79378   1.79755
 Alpha virt. eigenvalues --    1.80147   1.81085   1.81353   1.81838   1.82139
 Alpha virt. eigenvalues --    1.82299   1.82928   1.83501   1.83770   1.84189
 Alpha virt. eigenvalues --    1.84495   1.84765   1.84918   1.85500   1.85984
 Alpha virt. eigenvalues --    1.86090   1.86560   1.86703   1.87319   1.87713
 Alpha virt. eigenvalues --    1.88293   1.88361   1.88753   1.88935   1.89096
 Alpha virt. eigenvalues --    1.89606   1.90304   1.91357   1.91987   1.92530
 Alpha virt. eigenvalues --    1.92965   1.93169   1.93639   1.93760   1.94725
 Alpha virt. eigenvalues --    1.96125   1.96392   1.97687   1.97821   1.98314
 Alpha virt. eigenvalues --    1.98860   2.01659   2.02021   2.02134   2.02181
 Alpha virt. eigenvalues --    2.04911   2.05308   2.07055   2.07599   2.08262
 Alpha virt. eigenvalues --    2.11058   2.11275   2.11739   2.12763   2.13113
 Alpha virt. eigenvalues --    2.13714   2.14798   2.14913   2.15598   2.17508
 Alpha virt. eigenvalues --    2.18372   2.18556   2.19079   2.19264   2.20424
 Alpha virt. eigenvalues --    2.20645   2.20814   2.21665   2.24444   2.26344
 Alpha virt. eigenvalues --    2.26403   2.26972   2.27360   2.28741   2.29704
 Alpha virt. eigenvalues --    2.30301   2.30810   2.31394   2.32518   2.32869
 Alpha virt. eigenvalues --    2.33291   2.33745   2.33956   2.34614   2.34775
 Alpha virt. eigenvalues --    2.35038   2.38722   2.39483   2.41632   2.42856
 Alpha virt. eigenvalues --    2.44043   2.47927   2.49189   2.54442   2.64730
 Alpha virt. eigenvalues --    2.66691   2.67007   2.67030   2.67199   2.67749
 Alpha virt. eigenvalues --    2.68918   2.69172   2.69230   2.69319   2.69527
 Alpha virt. eigenvalues --    2.69571   2.69692   2.69807   2.69864   2.70059
 Alpha virt. eigenvalues --    2.70099   2.70124   2.70547   2.70655   2.70744
 Alpha virt. eigenvalues --    2.70772   2.70856   2.70941   2.71331   2.71576
 Alpha virt. eigenvalues --    2.71739   2.72007   2.72837   2.72861   2.72999
 Alpha virt. eigenvalues --    2.73170   2.73322   2.73480   2.73593   2.73638
 Alpha virt. eigenvalues --    2.73824   2.74284   2.74356   2.74381   2.75404
 Alpha virt. eigenvalues --    2.75462   2.75548   2.75641   2.75677   2.75712
 Alpha virt. eigenvalues --    2.75870   2.75925   2.76029   2.76074   2.76170
 Alpha virt. eigenvalues --    2.76237   2.76352   2.76449   2.76914   2.77406
 Alpha virt. eigenvalues --    2.77513   2.77713   2.78108   2.78328   2.78440
 Alpha virt. eigenvalues --    2.78630   2.79024   2.79328   2.79475   2.79622
 Alpha virt. eigenvalues --    2.79680   2.79820   2.80024   2.80284   2.81086
 Alpha virt. eigenvalues --    2.82202   2.82331   2.82515   2.82621   2.82684
 Alpha virt. eigenvalues --    2.82877   2.83071   2.83476   2.83911   2.84806
 Alpha virt. eigenvalues --    2.84852   2.85227   2.85422   2.85731   2.85821
 Alpha virt. eigenvalues --    2.85899   2.86073   2.86356   2.87243   2.87470
 Alpha virt. eigenvalues --    2.87659   2.88366   2.88509   2.88557   2.88685
 Alpha virt. eigenvalues --    2.88727   2.89495   2.89497   2.89552   2.90399
 Alpha virt. eigenvalues --    2.91053   2.91164   2.92135   2.92204   2.92302
 Alpha virt. eigenvalues --    2.92830   2.92895   2.92912   2.93119   2.93214
 Alpha virt. eigenvalues --    2.93666   2.94196   2.94518   2.94580   2.94744
 Alpha virt. eigenvalues --    2.94832   2.94945   2.95188   2.95330   2.95721
 Alpha virt. eigenvalues --    2.95819   2.96067   2.96140   2.96355   2.96489
 Alpha virt. eigenvalues --    2.96545   2.96714   2.96782   2.97175   2.97319
 Alpha virt. eigenvalues --    2.97483   2.98037   2.98185   2.98251   2.99026
 Alpha virt. eigenvalues --    2.99099   2.99147   2.99526   2.99643   2.99808
 Alpha virt. eigenvalues --    2.99966   3.00229   3.00369   3.00645   3.00745
 Alpha virt. eigenvalues --    3.01403   3.01587   3.01697   3.02153   3.02244
 Alpha virt. eigenvalues --    3.02492   3.02796   3.03212   3.03930   3.07349
 Alpha virt. eigenvalues --    3.08193   3.08673   3.08884   3.08943   3.09361
 Alpha virt. eigenvalues --    3.09695   3.09865   3.09996   3.10170   3.14176
 Alpha virt. eigenvalues --    3.14275   3.14360   3.14790   3.14970   3.15311
 Alpha virt. eigenvalues --    3.16572   3.16668   3.16953   3.22254   3.27608
 Alpha virt. eigenvalues --    3.29422   3.29578   3.30178   3.43268   3.43583
 Alpha virt. eigenvalues --    3.44189   3.45298   3.45450   3.47015   3.47094
 Alpha virt. eigenvalues --    3.48031   3.48467   3.48562   3.49367   3.49620
 Alpha virt. eigenvalues --    3.49983   3.53454   3.54121   3.54571   3.55753
 Alpha virt. eigenvalues --    3.56123   3.56604   3.56913   3.57226   3.57417
 Alpha virt. eigenvalues --    3.57555   3.57695   3.57842   3.58911   3.59595
 Alpha virt. eigenvalues --    3.59871   3.61343   3.61722   3.61815   3.62431
 Alpha virt. eigenvalues --    3.62828   3.63460   3.63776   3.64280   3.64616
 Alpha virt. eigenvalues --    3.73052   3.77085  68.66409  68.67474  68.68473
 Alpha virt. eigenvalues --   68.70474  68.74679  68.75752  68.83753  68.84723
 Alpha virt. eigenvalues --   68.85458  68.87690  68.88882  68.90106 576.24867
 Alpha virt. eigenvalues --  576.25910 576.26888 576.28843 576.33057 576.34105
 Alpha virt. eigenvalues --  576.41963 576.42915 576.43623 576.45767 576.46930
 Alpha virt. eigenvalues --  576.48142
  Beta  occ. eigenvalues -- -197.10846-129.99070-129.99066-129.99056-101.62485
  Beta  occ. eigenvalues --  -22.43268 -19.28540 -19.28511 -19.28453 -19.28434
  Beta  occ. eigenvalues --  -19.28399 -19.28379 -19.28363 -19.28357 -19.28349
  Beta  occ. eigenvalues --  -19.28275 -19.28256 -19.28167 -19.26948 -19.26927
  Beta  occ. eigenvalues --  -19.26922 -19.26866 -19.26858 -19.26846 -19.26844
  Beta  occ. eigenvalues --  -19.26842 -19.26822 -19.26820 -19.26813 -19.26795
  Beta  occ. eigenvalues --  -19.26795 -19.26789 -19.26784 -19.26779 -19.26771
  Beta  occ. eigenvalues --  -19.26763 -19.26759 -19.26746 -19.26737 -19.26719
  Beta  occ. eigenvalues --  -19.26659 -19.26629 -19.24728 -19.24694 -19.24664
  Beta  occ. eigenvalues --  -19.24639 -18.93761 -18.91584 -18.91491 -13.36479
  Beta  occ. eigenvalues --  -13.36473 -13.36458 -10.69406 -10.69402 -10.69401
  Beta  occ. eigenvalues --  -10.69401 -10.69397 -10.69395 -10.69386 -10.69382
  Beta  occ. eigenvalues --  -10.69376 -10.33321 -10.32337 -10.31942 -10.31148
  Beta  occ. eigenvalues --  -10.31139 -10.31090 -10.30534 -10.30466  -9.52943
  Beta  occ. eigenvalues --   -7.28783  -7.27345  -7.27341  -3.21122  -3.21097
  Beta  occ. eigenvalues --   -3.21070  -3.21045  -3.21034  -3.21019  -3.21007
  Beta  occ. eigenvalues --   -3.21005  -3.20997  -3.20867  -3.20863  -3.20833
  Beta  occ. eigenvalues --   -2.74754  -1.85353  -1.85289  -1.85280  -1.85249
  Beta  occ. eigenvalues --   -1.85147  -1.85075  -1.85059  -1.85040  -1.85025
  Beta  occ. eigenvalues --   -1.85014  -1.85000  -1.84944  -1.84395  -1.84283
  Beta  occ. eigenvalues --   -1.84270  -1.84253  -1.84220  -1.84208  -1.84152
  Beta  occ. eigenvalues --   -1.84137  -1.84109  -1.84101  -1.84070  -1.84060
  Beta  occ. eigenvalues --   -1.83962  -1.83921  -1.83884  -1.83878  -1.83863
  Beta  occ. eigenvalues --   -1.83831  -1.83807  -1.83796  -1.83788  -1.83694
  Beta  occ. eigenvalues --   -1.83682  -1.83675  -1.80639  -1.75981  -1.75776
  Beta  occ. eigenvalues --   -1.50184  -1.50180  -1.50168  -1.08612  -1.06987
  Beta  occ. eigenvalues --   -1.06943  -1.06898  -1.06021  -1.06006  -1.05984
  Beta  occ. eigenvalues --   -1.04589  -1.04578  -1.04569  -1.03991  -1.03983
  Beta  occ. eigenvalues --   -1.03650  -1.03345  -1.03303  -1.03290  -1.03036
  Beta  occ. eigenvalues --   -1.03004  -1.02255  -1.02217  -1.02212  -1.02098
  Beta  occ. eigenvalues --   -1.02012  -1.01978  -1.01909  -1.01888  -1.01778
  Beta  occ. eigenvalues --   -1.01768  -1.01749  -1.01623  -1.01581  -1.01559
  Beta  occ. eigenvalues --   -1.01312  -1.00785  -1.00761  -1.00707  -1.00700
  Beta  occ. eigenvalues --   -0.99872  -0.99815  -0.99770  -0.96449  -0.89996
  Beta  occ. eigenvalues --   -0.85631  -0.85628  -0.85621  -0.85475  -0.85474
  Beta  occ. eigenvalues --   -0.85473  -0.85471  -0.85458  -0.85431  -0.84629
  Beta  occ. eigenvalues --   -0.84372  -0.82709  -0.72208  -0.69761  -0.65344
  Beta  occ. eigenvalues --   -0.62341  -0.61731  -0.61664  -0.61638  -0.60837
  Beta  occ. eigenvalues --   -0.58981  -0.58964  -0.58946  -0.58807  -0.58796
  Beta  occ. eigenvalues --   -0.58764  -0.58750  -0.58693  -0.58562  -0.57353
  Beta  occ. eigenvalues --   -0.57205  -0.57156  -0.57029  -0.56937  -0.56510
  Beta  occ. eigenvalues --   -0.56428  -0.56386  -0.55838  -0.55628  -0.55347
  Beta  occ. eigenvalues --   -0.55338  -0.55321  -0.54657  -0.54161  -0.54132
  Beta  occ. eigenvalues --   -0.53960  -0.53682  -0.53638  -0.53606  -0.52828
  Beta  occ. eigenvalues --   -0.52664  -0.52599  -0.52487  -0.52461  -0.51471
  Beta  occ. eigenvalues --   -0.51456  -0.51447  -0.51323  -0.51256  -0.51008
  Beta  occ. eigenvalues --   -0.50573  -0.50479  -0.50470  -0.50343  -0.50248
  Beta  occ. eigenvalues --   -0.50174  -0.50042  -0.50030  -0.49969  -0.49702
  Beta  occ. eigenvalues --   -0.49637  -0.49587  -0.49501  -0.49482  -0.49283
  Beta  occ. eigenvalues --   -0.49217  -0.49201  -0.49111  -0.49079  -0.48997
  Beta  occ. eigenvalues --   -0.48712  -0.48553  -0.48534  -0.48464  -0.47853
  Beta  occ. eigenvalues --   -0.47624  -0.47585  -0.46059  -0.45908  -0.45875
  Beta  occ. eigenvalues --   -0.45816  -0.45676  -0.45574  -0.45227  -0.45168
  Beta  occ. eigenvalues --   -0.45153  -0.45055  -0.44796  -0.44595  -0.44473
  Beta  occ. eigenvalues --   -0.44427  -0.44422  -0.44279  -0.44205  -0.44179
  Beta  occ. eigenvalues --   -0.43452  -0.43236  -0.42498  -0.42459  -0.42413
  Beta  occ. eigenvalues --   -0.42303  -0.42254  -0.42142  -0.42130  -0.41631
  Beta  occ. eigenvalues --   -0.41609  -0.41571  -0.41408  -0.41045  -0.40951
  Beta  occ. eigenvalues --   -0.40758  -0.40710  -0.40683  -0.40369  -0.40354
  Beta  occ. eigenvalues --   -0.40318  -0.40166  -0.40154  -0.40142  -0.39809
  Beta  occ. eigenvalues --   -0.39626  -0.39365  -0.39170  -0.39092  -0.39088
  Beta  occ. eigenvalues --   -0.38902  -0.38854  -0.38813  -0.38745  -0.38702
  Beta  occ. eigenvalues --   -0.38652  -0.38306  -0.38278  -0.38235  -0.37641
  Beta  occ. eigenvalues --   -0.37218  -0.37181  -0.35647  -0.35601  -0.33963
  Beta  occ. eigenvalues --   -0.30876
  Beta virt. eigenvalues --   -0.06373  -0.06315  -0.04868  -0.04833  -0.04742
  Beta virt. eigenvalues --   -0.01514  -0.01410  -0.01370  -0.01144  -0.00919
  Beta virt. eigenvalues --   -0.00914  -0.00876  -0.00151  -0.00080  -0.00043
  Beta virt. eigenvalues --    0.00678   0.00718   0.00743   0.00916   0.01007
  Beta virt. eigenvalues --    0.01565   0.01828   0.01842   0.01883   0.02497
  Beta virt. eigenvalues --    0.02770   0.02837   0.02855   0.03513   0.03671
  Beta virt. eigenvalues --    0.03775   0.04013   0.04039   0.04315   0.04320
  Beta virt. eigenvalues --    0.04385   0.04398   0.04582   0.05030   0.05100
  Beta virt. eigenvalues --    0.05577   0.06468   0.07169   0.08493   0.08545
  Beta virt. eigenvalues --    0.08581   0.08652   0.09344   0.09444   0.09615
  Beta virt. eigenvalues --    0.09845   0.09912   0.10036   0.10055   0.10094
  Beta virt. eigenvalues --    0.10140   0.10344   0.10504   0.10903   0.10952
  Beta virt. eigenvalues --    0.11442   0.11608   0.11675   0.11956   0.12234
  Beta virt. eigenvalues --    0.12423   0.12477   0.12538   0.12575   0.13318
  Beta virt. eigenvalues --    0.13410   0.13596   0.14053   0.14289   0.14827
  Beta virt. eigenvalues --    0.14960   0.15052   0.15218   0.15349   0.15909
  Beta virt. eigenvalues --    0.16099   0.16721   0.17051   0.17729   0.17900
  Beta virt. eigenvalues --    0.18310   0.18433   0.18635   0.18766   0.18953
  Beta virt. eigenvalues --    0.19337   0.19412   0.19510   0.19570   0.19668
  Beta virt. eigenvalues --    0.19928   0.20009   0.20406   0.20682   0.20973
  Beta virt. eigenvalues --    0.21140   0.21315   0.21351   0.21599   0.21647
  Beta virt. eigenvalues --    0.21722   0.21945   0.22003   0.22208   0.22276
  Beta virt. eigenvalues --    0.22349   0.22782   0.23132   0.23230   0.23320
  Beta virt. eigenvalues --    0.23387   0.23555   0.23739   0.23958   0.24232
  Beta virt. eigenvalues --    0.24276   0.24560   0.24676   0.24995   0.25095
  Beta virt. eigenvalues --    0.25332   0.25499   0.25541   0.26198   0.26674
  Beta virt. eigenvalues --    0.26843   0.27116   0.27337   0.27654   0.27882
  Beta virt. eigenvalues --    0.27983   0.28441   0.28687   0.28784   0.29185
  Beta virt. eigenvalues --    0.29298   0.29371   0.29436   0.29580   0.29764
  Beta virt. eigenvalues --    0.30063   0.30406   0.30730   0.31287   0.31533
  Beta virt. eigenvalues --    0.31864   0.32204   0.32326   0.32794   0.33163
  Beta virt. eigenvalues --    0.33591   0.34451   0.35271   0.36955   0.37040
  Beta virt. eigenvalues --    0.38188   0.38758   0.38897   0.39394   0.39601
  Beta virt. eigenvalues --    0.40333   0.41371   0.41810   0.41926   0.42033
  Beta virt. eigenvalues --    0.42242   0.42508   0.42738   0.43428   0.44050
  Beta virt. eigenvalues --    0.44229   0.44480   0.44888   0.45261   0.45541
  Beta virt. eigenvalues --    0.45755   0.45841   0.45879   0.46498   0.46690
  Beta virt. eigenvalues --    0.46980   0.47307   0.47874   0.47947   0.48239
  Beta virt. eigenvalues --    0.48334   0.48406   0.48811   0.49040   0.49142
  Beta virt. eigenvalues --    0.49476   0.49820   0.49891   0.49948   0.50025
  Beta virt. eigenvalues --    0.50126   0.50377   0.50489   0.50692   0.50708
  Beta virt. eigenvalues --    0.51200   0.51276   0.51595   0.51796   0.52001
  Beta virt. eigenvalues --    0.52469   0.52668   0.52802   0.53024   0.53283
  Beta virt. eigenvalues --    0.53741   0.54086   0.54267   0.54475   0.54678
  Beta virt. eigenvalues --    0.54780   0.55391   0.55977   0.56042   0.56457
  Beta virt. eigenvalues --    0.56584   0.56922   0.57060   0.57147   0.57529
  Beta virt. eigenvalues --    0.57989   0.58732   0.58812   0.58975   0.59467
  Beta virt. eigenvalues --    0.59929   0.60575   0.60716   0.60989   0.61613
  Beta virt. eigenvalues --    0.61950   0.62733   0.63544   0.64132   0.64621
  Beta virt. eigenvalues --    0.65047   0.65280   0.66397   0.66553   0.66626
  Beta virt. eigenvalues --    0.67781   0.68194   0.68344   0.68736   0.69022
  Beta virt. eigenvalues --    0.69653   0.70097   0.70639   0.71310   0.71663
  Beta virt. eigenvalues --    0.71970   0.72259   0.72659   0.72769   0.73107
  Beta virt. eigenvalues --    0.73188   0.73359   0.73475   0.73648   0.73705
  Beta virt. eigenvalues --    0.73995   0.74170   0.74905   0.75557   0.75744
  Beta virt. eigenvalues --    0.76109   0.76968   0.77097   0.77958   0.78250
  Beta virt. eigenvalues --    0.78968   0.79260   0.80012   0.80589   0.80664
  Beta virt. eigenvalues --    0.81105   0.81197   0.82035   0.82129   0.82283
  Beta virt. eigenvalues --    0.83047   0.83329   0.83841   0.83902   0.84250
  Beta virt. eigenvalues --    0.84590   0.84973   0.85432   0.86416   0.87086
  Beta virt. eigenvalues --    0.87264   0.88092   0.88418   0.89444   0.89626
  Beta virt. eigenvalues --    0.89925   0.90271   0.90408   0.90894   0.90998
  Beta virt. eigenvalues --    0.91658   0.91803   0.92042   0.92269   0.92454
  Beta virt. eigenvalues --    0.92651   0.93239   0.93400   0.93437   0.93822
  Beta virt. eigenvalues --    0.95016   0.95245   0.95476   0.95884   0.96558
  Beta virt. eigenvalues --    0.96986   0.97250   0.97707   0.97866   0.98458
  Beta virt. eigenvalues --    0.99163   0.99399   0.99606   0.99851   1.00285
  Beta virt. eigenvalues --    1.00344   1.00531   1.00675   1.00850   1.01033
  Beta virt. eigenvalues --    1.01184   1.01312   1.01775   1.02202   1.02587
  Beta virt. eigenvalues --    1.02752   1.02896   1.03481   1.03800   1.03923
  Beta virt. eigenvalues --    1.04149   1.04291   1.04768   1.04887   1.05104
  Beta virt. eigenvalues --    1.05202   1.05438   1.05624   1.06017   1.06542
  Beta virt. eigenvalues --    1.06986   1.07025   1.07240   1.07458   1.07586
  Beta virt. eigenvalues --    1.07751   1.07887   1.08352   1.08739   1.08922
  Beta virt. eigenvalues --    1.08999   1.09348   1.09503   1.10166   1.10785
  Beta virt. eigenvalues --    1.11137   1.11285   1.11939   1.12121   1.12311
  Beta virt. eigenvalues --    1.12464   1.12746   1.13043   1.13078   1.13271
  Beta virt. eigenvalues --    1.13469   1.13626   1.13808   1.13924   1.14149
  Beta virt. eigenvalues --    1.14503   1.14825   1.15208   1.15379   1.15999
  Beta virt. eigenvalues --    1.16331   1.16724   1.17432   1.17838   1.18472
  Beta virt. eigenvalues --    1.18978   1.19682   1.19753   1.20067   1.20357
  Beta virt. eigenvalues --    1.20999   1.21779   1.22555   1.22959   1.23001
  Beta virt. eigenvalues --    1.23066   1.23253   1.23631   1.23771   1.24592
  Beta virt. eigenvalues --    1.25354   1.25937   1.27258   1.27727   1.27803
  Beta virt. eigenvalues --    1.28461   1.29290   1.29650   1.30104   1.30441
  Beta virt. eigenvalues --    1.30556   1.30792   1.31031   1.31191   1.31956
  Beta virt. eigenvalues --    1.32096   1.32164   1.32249   1.32320   1.32421
  Beta virt. eigenvalues --    1.32648   1.32773   1.33122   1.33286   1.34322
  Beta virt. eigenvalues --    1.34835   1.34986   1.35018   1.35487   1.35596
  Beta virt. eigenvalues --    1.35779   1.35851   1.36148   1.36426   1.36517
  Beta virt. eigenvalues --    1.36886   1.36964   1.37767   1.37919   1.37995
  Beta virt. eigenvalues --    1.38258   1.38448   1.38788   1.38818   1.38876
  Beta virt. eigenvalues --    1.39045   1.39320   1.39536   1.39745   1.39828
  Beta virt. eigenvalues --    1.40189   1.40383   1.40532   1.40840   1.41144
  Beta virt. eigenvalues --    1.41208   1.41259   1.41524   1.41719   1.41762
  Beta virt. eigenvalues --    1.42095   1.42355   1.42505   1.42575   1.42641
  Beta virt. eigenvalues --    1.43080   1.43279   1.43567   1.43575   1.43964
  Beta virt. eigenvalues --    1.44471   1.44680   1.45226   1.45329   1.45514
  Beta virt. eigenvalues --    1.45614   1.46146   1.46220   1.46800   1.47252
  Beta virt. eigenvalues --    1.47742   1.48131   1.49660   1.49715   1.49969
  Beta virt. eigenvalues --    1.50239   1.50691   1.51813   1.52220   1.52304
  Beta virt. eigenvalues --    1.52491   1.53103   1.53327   1.53868   1.55333
  Beta virt. eigenvalues --    1.55593   1.57395   1.58183   1.58206   1.58335
  Beta virt. eigenvalues --    1.58664   1.58927   1.59058   1.59389   1.60114
  Beta virt. eigenvalues --    1.60579   1.60929   1.61446   1.61635   1.62052
  Beta virt. eigenvalues --    1.62137   1.62298   1.62930   1.63287   1.63974
  Beta virt. eigenvalues --    1.64672   1.64887   1.64998   1.65526   1.65719
  Beta virt. eigenvalues --    1.65983   1.66948   1.68192   1.68529   1.69470
  Beta virt. eigenvalues --    1.70003   1.70618   1.71002   1.72281   1.73162
  Beta virt. eigenvalues --    1.73269   1.73540   1.74166   1.74303   1.74901
  Beta virt. eigenvalues --    1.75698   1.76337   1.77645   1.77846   1.78010
  Beta virt. eigenvalues --    1.78388   1.78724   1.79167   1.79367   1.79761
  Beta virt. eigenvalues --    1.80074   1.81098   1.81345   1.81819   1.82109
  Beta virt. eigenvalues --    1.82272   1.82835   1.83495   1.83800   1.84169
  Beta virt. eigenvalues --    1.84416   1.84743   1.84880   1.85509   1.85956
  Beta virt. eigenvalues --    1.86082   1.86588   1.86713   1.87320   1.87711
  Beta virt. eigenvalues --    1.88101   1.88363   1.88651   1.88835   1.89098
  Beta virt. eigenvalues --    1.89619   1.90325   1.91360   1.91857   1.92529
  Beta virt. eigenvalues --    1.93013   1.93161   1.93626   1.93768   1.94731
  Beta virt. eigenvalues --    1.96142   1.96317   1.97713   1.97862   1.98393
  Beta virt. eigenvalues --    1.98890   2.01476   2.02077   2.02139   2.02292
  Beta virt. eigenvalues --    2.04716   2.05174   2.06973   2.07220   2.08223
  Beta virt. eigenvalues --    2.11071   2.11293   2.11757   2.12121   2.13066
  Beta virt. eigenvalues --    2.13737   2.14809   2.14931   2.15651   2.17531
  Beta virt. eigenvalues --    2.18125   2.18442   2.19120   2.19256   2.20390
  Beta virt. eigenvalues --    2.20791   2.20968   2.21793   2.24372   2.26448
  Beta virt. eigenvalues --    2.26679   2.27214   2.27791   2.29474   2.30066
  Beta virt. eigenvalues --    2.30605   2.31004   2.31386   2.32840   2.33275
  Beta virt. eigenvalues --    2.33659   2.34274   2.34454   2.35014   2.35834
  Beta virt. eigenvalues --    2.36370   2.38420   2.39310   2.41520   2.42711
  Beta virt. eigenvalues --    2.44102   2.47419   2.48912   2.53826   2.64413
  Beta virt. eigenvalues --    2.66441   2.67005   2.67026   2.67159   2.67746
  Beta virt. eigenvalues --    2.68760   2.69172   2.69227   2.69297   2.69527
  Beta virt. eigenvalues --    2.69570   2.69693   2.69810   2.69865   2.70071
  Beta virt. eigenvalues --    2.70120   2.70133   2.70474   2.70680   2.70760
  Beta virt. eigenvalues --    2.70776   2.70866   2.70886   2.71315   2.71579
  Beta virt. eigenvalues --    2.71741   2.72006   2.72841   2.72864   2.73005
  Beta virt. eigenvalues --    2.73191   2.73341   2.73441   2.73490   2.73602
  Beta virt. eigenvalues --    2.73776   2.74292   2.74354   2.74383   2.75411
  Beta virt. eigenvalues --    2.75469   2.75552   2.75648   2.75682   2.75719
  Beta virt. eigenvalues --    2.75878   2.75934   2.76033   2.76082   2.76175
  Beta virt. eigenvalues --    2.76243   2.76357   2.76453   2.76917   2.77425
  Beta virt. eigenvalues --    2.77534   2.77751   2.78132   2.78356   2.78457
  Beta virt. eigenvalues --    2.78650   2.79034   2.79363   2.79505   2.79606
  Beta virt. eigenvalues --    2.79691   2.79819   2.80000   2.80235   2.81089
  Beta virt. eigenvalues --    2.82257   2.82338   2.82559   2.82646   2.82682
  Beta virt. eigenvalues --    2.82897   2.83118   2.83469   2.83902   2.84821
  Beta virt. eigenvalues --    2.84867   2.85249   2.85423   2.85655   2.85752
  Beta virt. eigenvalues --    2.85895   2.86055   2.86359   2.87267   2.87499
  Beta virt. eigenvalues --    2.87687   2.88371   2.88511   2.88561   2.88688
  Beta virt. eigenvalues --    2.88729   2.89508   2.89522   2.89563   2.90403
  Beta virt. eigenvalues --    2.91069   2.91186   2.92145   2.92211   2.92310
  Beta virt. eigenvalues --    2.92853   2.92913   2.92924   2.93146   2.93245
  Beta virt. eigenvalues --    2.93691   2.94189   2.94529   2.94576   2.94656
  Beta virt. eigenvalues --    2.94821   2.94962   2.95180   2.95326   2.95731
  Beta virt. eigenvalues --    2.95833   2.96086   2.96162   2.96361   2.96502
  Beta virt. eigenvalues --    2.96548   2.96664   2.96757   2.97186   2.97329
  Beta virt. eigenvalues --    2.97488   2.98052   2.98200   2.98258   2.98863
  Beta virt. eigenvalues --    2.99074   2.99125   2.99546   2.99675   2.99845
  Beta virt. eigenvalues --    3.00006   3.00246   3.00446   3.00703   3.00809
  Beta virt. eigenvalues --    3.01421   3.01599   3.01706   3.02173   3.02282
  Beta virt. eigenvalues --    3.02505   3.02813   3.03227   3.03941   3.07353
  Beta virt. eigenvalues --    3.08447   3.08531   3.08917   3.08973   3.09391
  Beta virt. eigenvalues --    3.09842   3.10219   3.10319   3.10934   3.14187
  Beta virt. eigenvalues --    3.14282   3.14367   3.14733   3.14913   3.15324
  Beta virt. eigenvalues --    3.16584   3.16680   3.17025   3.22183   3.28089
  Beta virt. eigenvalues --    3.30021   3.30573   3.30760   3.43272   3.43589
  Beta virt. eigenvalues --    3.44189   3.45237   3.45311   3.47019   3.47102
  Beta virt. eigenvalues --    3.48035   3.48469   3.48564   3.49369   3.49622
  Beta virt. eigenvalues --    3.49986   3.53461   3.54140   3.54591   3.55760
  Beta virt. eigenvalues --    3.56132   3.56619   3.56927   3.57242   3.57450
  Beta virt. eigenvalues --    3.57576   3.57722   3.57865   3.58922   3.59599
  Beta virt. eigenvalues --    3.59876   3.61360   3.61730   3.61822   3.62435
  Beta virt. eigenvalues --    3.62832   3.63465   3.63778   3.64284   3.64622
  Beta virt. eigenvalues --    3.72979   3.77314  68.66410  68.67476  68.68474
  Beta virt. eigenvalues --   68.70475  68.74680  68.75755  68.83755  68.84724
  Beta virt. eigenvalues --   68.85459  68.87692  68.88884  68.90108 576.24897
  Beta virt. eigenvalues --  576.25936 576.26915 576.28870 576.33073 576.34146
  Beta virt. eigenvalues --  576.41993 576.42936 576.43657 576.45798 576.46952
  Beta virt. eigenvalues --  576.48175
          Condensed to atoms (all electrons):
          Atomic-Atomic Spin Densities.
 Mulliken charges and spin densities:
               1          2
     1  Cl  -0.351968  -0.603021
     2  C   -0.035290  -0.097733
     3  C    0.012251   0.058767
     4  C   -0.034926  -0.093543
     5  C   -0.031524   0.059610
     6  C    0.008253  -0.117633
     7  C   -0.047633   0.059731
     8  H    0.050849   0.004255
     9  H    0.050918   0.004011
    10  H    0.056111  -0.002129
    11  H    0.057220   0.005164
    12  H    0.054593  -0.002098
    13  C    0.006726  -0.266412
    14  C   -0.042897  -0.017420
    15  H    0.077037   0.010923
    16  H    0.094870   0.001139
    17  H    0.088451  -0.001980
    18  O   -0.672629  -0.000567
    19  O   -0.671725  -0.000530
    20  O   -0.666518  -0.001599
    21  O   -0.673144  -0.000543
    22  W    1.717316   0.000357
    23  W    1.662331   0.000483
    24  W    1.674174   0.000166
    25  W    1.682952   0.000217
    26  W    1.663717   0.002703
    27  W    1.710703   0.002435
    28  W    1.611552   0.003337
    29  W    1.673491   0.002781
    30  O   -0.350099  -0.000527
    31  O   -0.394209  -0.000572
    32  O   -0.396209  -0.000613
    33  O   -0.388494  -0.000571
    34  O   -0.672475  -0.000278
    35  O   -0.678469  -0.000015
    36  O   -0.670578  -0.000120
    37  O   -0.673118  -0.000183
    38  O   -0.397668   0.002124
    39  O   -0.395039   0.002163
    40  O   -0.340555   0.000257
    41  O   -0.395095   0.002134
    42  O   -0.678110   0.000032
    43  O   -0.672797   0.000135
    44  O   -0.669033   0.000254
    45  O   -0.674412   0.000081
    46  O   -0.397841   0.002265
    47  O   -0.352101   0.002138
    48  O   -0.394625   0.001797
    49  O   -0.392408   0.002292
    50  W    1.660130   0.002810
    51  W    1.666192   0.002707
    52  W    1.677648   0.003953
    53  W    1.671854   0.002658
    54  O   -0.724136   0.000108
    55  O   -0.706561   0.000016
    56  O   -0.722870   0.000154
    57  O   -0.721875   0.000073
    58  O   -0.703976   0.000072
    59  O   -0.724390   0.000156
    60  O   -0.723606   0.000210
    61  O   -0.718886   0.000198
    62  O   -0.723903  -0.000185
    63  O   -0.706477  -0.000059
    64  O   -0.725026  -0.000203
    65  O   -0.724745  -0.000205
    66  O   -0.884445   0.005313
    67  O   -0.884539   0.007307
    68  O   -0.881694   0.007147
    69  O   -0.889964   0.006462
    70  K    0.849985   0.000192
    71  K    0.848871   0.000216
    72  K    0.846941   0.000214
    73  V    1.203549   0.937022
 Sum of Mulliken charges =  -1.00000  -0.00000
 Mulliken charges and spin densities with hydrogens summed into heavy atoms:
               1          2
     1  Cl  -0.351968  -0.603021
     2  C    0.015559  -0.093477
     3  C    0.012251   0.058767
     4  C    0.015992  -0.089532
     5  C    0.024587   0.057480
     6  C    0.065473  -0.112469
     7  C    0.006960   0.057633
    13  C    0.083762  -0.255489
    14  C    0.140424  -0.018261
    18  O   -0.672629  -0.000567
    19  O   -0.671725  -0.000530
    20  O   -0.666518  -0.001599
    21  O   -0.673144  -0.000543
    22  W    1.717316   0.000357
    23  W    1.662331   0.000483
    24  W    1.674174   0.000166
    25  W    1.682952   0.000217
    26  W    1.663717   0.002703
    27  W    1.710703   0.002435
    28  W    1.611552   0.003337
    29  W    1.673491   0.002781
    30  O   -0.350099  -0.000527
    31  O   -0.394209  -0.000572
    32  O   -0.396209  -0.000613
    33  O   -0.388494  -0.000571
    34  O   -0.672475  -0.000278
    35  O   -0.678469  -0.000015
    36  O   -0.670578  -0.000120
    37  O   -0.673118  -0.000183
    38  O   -0.397668   0.002124
    39  O   -0.395039   0.002163
    40  O   -0.340555   0.000257
    41  O   -0.395095   0.002134
    42  O   -0.678110   0.000032
    43  O   -0.672797   0.000135
    44  O   -0.669033   0.000254
    45  O   -0.674412   0.000081
    46  O   -0.397841   0.002265
    47  O   -0.352101   0.002138
    48  O   -0.394625   0.001797
    49  O   -0.392408   0.002292
    50  W    1.660130   0.002810
    51  W    1.666192   0.002707
    52  W    1.677648   0.003953
    53  W    1.671854   0.002658
    54  O   -0.724136   0.000108
    55  O   -0.706561   0.000016
    56  O   -0.722870   0.000154
    57  O   -0.721875   0.000073
    58  O   -0.703976   0.000072
    59  O   -0.724390   0.000156
    60  O   -0.723606   0.000210
    61  O   -0.718886   0.000198
    62  O   -0.723903  -0.000185
    63  O   -0.706477  -0.000059
    64  O   -0.725026  -0.000203
    65  O   -0.724745  -0.000205
    66  O   -0.884445   0.005313
    67  O   -0.884539   0.007307
    68  O   -0.881694   0.007147
    69  O   -0.889964   0.006462
    70  K    0.849985   0.000192
    71  K    0.848871   0.000216
    72  K    0.846941   0.000214
    73  V    1.203549   0.937022
 Electronic spatial extent (au):  <R**2>=         316803.1410
 Charge=             -1.0000 electrons
 Dipole moment (field-independent basis, Debye):
    X=             28.0372    Y=            -13.6664    Z=            -30.6915  Tot=             43.7587
 Quadrupole moment (field-independent basis, Debye-Ang):
   XX=           -758.4594   YY=           -711.6186   ZZ=           -781.5194
   XY=            126.5822   XZ=            173.5864   YZ=            -92.6324
 Traceless Quadrupole moment (field-independent basis, Debye-Ang):
   XX=             -7.9269   YY=             38.9139   ZZ=            -30.9869
   XY=            126.5822   XZ=            173.5864   YZ=            -92.6324
 Octapole moment (field-independent basis, Debye-Ang**2):
  XXX=          10127.8848  YYY=            846.3014  ZZZ=         -17417.9550  XYY=           4136.4234
  XXY=           -587.6572  XXZ=          -6013.6204  XZZ=           4017.3206  YZZ=           -113.2899
  YYZ=          -7107.5529  XYZ=           1390.0323
 Hexadecapole moment (field-independent basis, Debye-Ang**3):
 XXXX=        -124044.0590 YYYY=         -40895.8275 ZZZZ=        -325676.5053 XXXY=           7479.7258
 XXXZ=          85779.0922 YYYX=           3129.5293 YYYZ=           7098.5413 ZZZX=          89529.8710
 ZZZY=           8092.6986 XXYY=         -36036.7651 XXZZ=         -69337.9667 YYZZ=         -78968.9478
 XXYZ=         -10200.0492 YYXZ=          40836.5302 ZZXY=          14248.0553
 N-N= 2.097528332935D+04 E-N=-5.906001586136D+04  KE= 6.765656775057D+03
                          Isotropic Fermi Contact Couplings
        Atom                 a.u.       MegaHertz       Gauss      10(-4) cm-1
     1  Cl(35)            -0.09752     -21.38048      -7.62909      -7.13176
     2  C(13)             -0.01557      -8.75214      -3.12298      -2.91940
     3  C(13)              0.01879      10.56169       3.76867       3.52300
     4  C(13)             -0.01518      -8.53209      -3.04446      -2.84600
     5  C(13)              0.01337       7.51763       2.68248       2.50761
     6  C(13)             -0.01906     -10.71385      -3.82297      -3.57376
     7  C(13)              0.01344       7.55193       2.69472       2.51905
     8  H(1)               0.00134       2.99221       1.06770       0.99810
     9  H(1)               0.00130       2.89820       1.03415       0.96674
    10  H(1)              -0.00063      -1.40775      -0.50232      -0.46957
    11  H(1)               0.00157       3.50382       1.25025       1.16875
    12  H(1)              -0.00062      -1.38128      -0.49287      -0.46075
    13  C(13)             -0.03753     -21.09574      -7.52748      -7.03678
    14  C(13)             -0.02589     -14.55330      -5.19298      -4.85446
    15  H(1)               0.00343       7.66110       2.73367       2.55547
    16  H(1)               0.00059       1.32599       0.47315       0.44230
    17  H(1)              -0.00158      -3.53287      -1.26061      -1.17844
    18  O(17)             -0.00045       0.13509       0.04820       0.04506
    19  O(17)             -0.00042       0.12855       0.04587       0.04288
    20  O(17)             -0.00163       0.49527       0.17673       0.16521
    21  O(17)             -0.00044       0.13249       0.04727       0.04419
    22  W(183)             0.00000       0.00000       0.00000       0.00000
    23  W(183)             0.00000       0.00000       0.00000       0.00000
    24  W(183)             0.00000       0.00000       0.00000       0.00000
    25  W(183)             0.00000       0.00000       0.00000       0.00000
    26  W(183)             0.00000       0.00000       0.00000       0.00000
    27  W(183)             0.00000       0.00000       0.00000       0.00000
    28  W(183)             0.00000       0.00000       0.00000       0.00000
    29  W(183)             0.00000       0.00000       0.00000       0.00000
    30  O(17)             -0.00020       0.06096       0.02175       0.02034
    31  O(17)             -0.00024       0.07401       0.02641       0.02469
    32  O(17)             -0.00026       0.07937       0.02832       0.02647
    33  O(17)             -0.00024       0.07159       0.02554       0.02388
    34  O(17)             -0.00002       0.00568       0.00203       0.00190
    35  O(17)              0.00018      -0.05542      -0.01977      -0.01848
    36  O(17)              0.00014      -0.04197      -0.01498      -0.01400
    37  O(17)              0.00007      -0.02219      -0.00792      -0.00740
    38  O(17)              0.00198      -0.59977      -0.21401      -0.20006
    39  O(17)              0.00195      -0.59121      -0.21096      -0.19721
    40  O(17)             -0.00447       1.35496       0.48348       0.45197
    41  O(17)              0.00193      -0.58420      -0.20846      -0.19487
    42  O(17)              0.00023      -0.06918      -0.02468      -0.02308
    43  O(17)              0.00030      -0.09134      -0.03259      -0.03047
    44  O(17)              0.00044      -0.13254      -0.04729      -0.04421
    45  O(17)              0.00026      -0.07995      -0.02853      -0.02667
    46  O(17)              0.00217      -0.65827      -0.23489      -0.21958
    47  O(17)              0.00192      -0.58342      -0.20818      -0.19461
    48  O(17)              0.00051      -0.15359      -0.05481      -0.05123
    49  O(17)              0.00215      -0.65071      -0.23219      -0.21706
    50  W(183)             0.00000       0.00000       0.00000       0.00000
    51  W(183)             0.00000       0.00000       0.00000       0.00000
    52  W(183)             0.00000       0.00000       0.00000       0.00000
    53  W(183)             0.00000       0.00000       0.00000       0.00000
    54  O(17)              0.00015      -0.04541      -0.01620      -0.01515
    55  O(17)              0.00002      -0.00692      -0.00247      -0.00231
    56  O(17)              0.00021      -0.06507      -0.02322      -0.02170
    57  O(17)              0.00005      -0.01514      -0.00540      -0.00505
    58  O(17)              0.00017      -0.05020      -0.01791      -0.01674
    59  O(17)              0.00027      -0.08042      -0.02870      -0.02683
    60  O(17)              0.00034      -0.10204      -0.03641      -0.03404
    61  O(17)              0.00033      -0.09865      -0.03520      -0.03291
    62  O(17)             -0.00027       0.08248       0.02943       0.02751
    63  O(17)             -0.00020       0.06111       0.02180       0.02038
    64  O(17)             -0.00030       0.09009       0.03214       0.03005
    65  O(17)             -0.00031       0.09309       0.03322       0.03105
    66  O(17)             -0.00803       2.43462       0.86873       0.81210
    67  O(17)             -0.00694       2.10225       0.75013       0.70123
    68  O(17)             -0.00705       2.13814       0.76294       0.71321
    69  O(17)             -0.00752       2.27968       0.81345       0.76042
    70  K(39)             -0.00002      -0.00200      -0.00071      -0.00067
    71  K(39)             -0.00002      -0.00186      -0.00066      -0.00062
    72  K(39)             -0.00002      -0.00233      -0.00083      -0.00078
    73  V(51)              0.07037      41.44111      14.78722      13.82326
 --------------------------------------------------------
       Center         ----  Spin Dipole Couplings  ----
                      3XX-RR        3YY-RR        3ZZ-RR
 --------------------------------------------------------
     1   Atom        1.277081     -2.592915      1.315834
     2   Atom       -0.015985     -0.015760      0.031745
     3   Atom        0.004913      0.003558     -0.008471
     4   Atom       -0.016187     -0.020902      0.037089
     5   Atom        0.013031      0.005809     -0.018840
     6   Atom       -0.024347     -0.016896      0.041243
     7   Atom        0.011171      0.006053     -0.017224
     8   Atom       -0.001777     -0.002301      0.004078
     9   Atom        0.000191      0.000391     -0.000582
    10   Atom        0.001540      0.000698     -0.002237
    11   Atom        0.004414      0.000413     -0.004828
    12   Atom        0.000657     -0.000737      0.000080
    13   Atom       -0.138904      0.034649      0.104255
    14   Atom        0.011060     -0.045254      0.034194
    15   Atom       -0.002242      0.003886     -0.001644
    16   Atom        0.008983     -0.000034     -0.008949
    17   Atom       -0.011572      0.002075      0.009497
    18   Atom        0.001350     -0.001290     -0.000060
    19   Atom        0.001825     -0.001745     -0.000080
    20   Atom       -0.001797     -0.000398      0.002195
    21   Atom       -0.000658      0.000703     -0.000046
    22   Atom       -0.001997      0.000560      0.001437
    23   Atom       -0.001838      0.000624      0.001214
    24   Atom       -0.002414      0.001015      0.001399
    25   Atom       -0.002090      0.000575      0.001515
    26   Atom        0.000406     -0.002230      0.001824
    27   Atom        0.000548     -0.002452      0.001904
    28   Atom        0.000930     -0.003077      0.002147
    29   Atom        0.000688     -0.002689      0.002001
    30   Atom       -0.000136      0.000293     -0.000157
    31   Atom        0.000039      0.000011     -0.000050
    32   Atom       -0.000521      0.000602     -0.000080
    33   Atom       -0.000170      0.000241     -0.000072
    34   Atom        0.000001     -0.002040      0.002039
    35   Atom       -0.000298     -0.002694      0.002992
    36   Atom       -0.002269     -0.000461      0.002730
    37   Atom       -0.001978     -0.000622      0.002600
    38   Atom        0.006073     -0.002998     -0.003075
    39   Atom        0.006514     -0.003370     -0.003144
    40   Atom       -0.009489      0.009395      0.000094
    41   Atom       -0.004492      0.007911     -0.003420
    42   Atom        0.002629     -0.001104     -0.001526
    43   Atom        0.002931     -0.001121     -0.001810
    44   Atom       -0.004404      0.005692     -0.001288
    45   Atom       -0.003293      0.004800     -0.001508
    46   Atom       -0.000844      0.000740      0.000104
    47   Atom        0.001475     -0.002752      0.001277
    48   Atom        0.005249     -0.007514      0.002265
    49   Atom        0.004659     -0.004871      0.000212
    50   Atom        0.006129     -0.002789     -0.003340
    51   Atom        0.006468     -0.003171     -0.003297
    52   Atom       -0.002343      0.005060     -0.002718
    53   Atom       -0.002174      0.005574     -0.003400
    54   Atom       -0.003192     -0.001626      0.004818
    55   Atom       -0.002982     -0.001883      0.004865
    56   Atom       -0.001112     -0.004484      0.005596
    57   Atom       -0.001162     -0.003851      0.005013
    58   Atom       -0.004015      0.006435     -0.002419
    59   Atom       -0.003927      0.006756     -0.002828
    60   Atom        0.002745     -0.000014     -0.002730
    61   Atom        0.003004     -0.000351     -0.002653
    62   Atom        0.000804      0.001083     -0.001887
    63   Atom        0.001087      0.000557     -0.001644
    64   Atom        0.005376     -0.003766     -0.001611
    65   Atom        0.005028     -0.003113     -0.001915
    66   Atom       -0.029574     -0.000673      0.030247
    67   Atom       -0.034146     -0.003912      0.038058
    68   Atom       -0.062161      0.021596      0.040565
    69   Atom       -0.058260      0.026330      0.031930
    70   Atom       -0.000582      0.000559      0.000023
    71   Atom        0.000448     -0.000539      0.000091
    72   Atom        0.000794     -0.001006      0.000212
    73   Atom       -1.002629      0.233805      0.768824
 --------------------------------------------------------
                        XY            XZ            YZ
 --------------------------------------------------------
     1   Atom        1.480721      0.482281     -1.424322
     2   Atom        0.063066      0.030651     -0.030165
     3   Atom       -0.017286     -0.007756      0.011520
     4   Atom        0.062193      0.023791     -0.024751
     5   Atom       -0.031462     -0.015413      0.014698
     6   Atom        0.078806      0.035248     -0.030026
     7   Atom       -0.031906     -0.013010      0.015703
     8   Atom       -0.003003     -0.001463      0.000218
     9   Atom       -0.002263     -0.004119     -0.003417
    10   Atom       -0.000457     -0.001485      0.000869
    11   Atom        0.002257      0.002628      0.006125
    12   Atom       -0.001423      0.000407      0.002457
    13   Atom        0.162287      0.101074     -0.060083
    14   Atom        0.069922      0.041867     -0.050655
    15   Atom       -0.005121     -0.010672     -0.015229
    16   Atom       -0.000941      0.009086      0.003228
    17   Atom       -0.002423     -0.010353     -0.001546
    18   Atom        0.000445     -0.001649      0.000240
    19   Atom        0.000370      0.001956     -0.000569
    20   Atom        0.003064      0.000720     -0.000732
    21   Atom       -0.001115      0.001299     -0.001306
    22   Atom        0.002208     -0.002007     -0.004106
    23   Atom        0.002185      0.002249      0.003920
    24   Atom        0.002323      0.001875      0.004215
    25   Atom        0.002004     -0.002027     -0.004127
    26   Atom       -0.002082     -0.004580      0.002430
    27   Atom       -0.001885      0.004717     -0.002742
    28   Atom       -0.001472     -0.004663      0.002601
    29   Atom       -0.001726      0.004754     -0.002270
    30   Atom        0.000384     -0.000151     -0.000585
    31   Atom        0.000438      0.000638      0.000282
    32   Atom        0.000441     -0.000133      0.000805
    33   Atom        0.000287     -0.000086     -0.000634
    34   Atom        0.000584     -0.003375     -0.000810
    35   Atom        0.000872      0.004119      0.001068
    36   Atom       -0.000375     -0.001811      0.003912
    37   Atom       -0.000664      0.001518     -0.003343
    38   Atom        0.004759      0.003784      0.001691
    39   Atom        0.004750     -0.003700     -0.001793
    40   Atom        0.005757      0.003951     -0.005047
    41   Atom       -0.002445     -0.000554      0.003724
    42   Atom        0.003752     -0.002552     -0.001865
    43   Atom        0.004067      0.002747      0.001792
    44   Atom        0.000356      0.000070      0.003881
    45   Atom       -0.000402      0.000049     -0.003484
    46   Atom       -0.004717     -0.004622      0.005178
[...]
                                 (Linear)    (Quad)   (Total)
    X1      -18.21999   0.00219   0.00000   0.00198  -0.00184 -18.22183
    Y1       15.62451  -0.01144   0.00000  -0.01141  -0.01529  15.60922
    Z1       19.91405  -0.00316   0.00000  -0.00335  -0.00532  19.90873
    X2      -15.78739   0.00185   0.00000  -0.00209  -0.00401 -15.79140
    Y2        8.05092   0.00126   0.00000   0.02006   0.01714   8.06806
    Z2       23.07297   0.00275   0.00000   0.00380   0.00269  23.07566
    X3      -17.28979   0.00057   0.00000  -0.02490  -0.02673 -17.31652
    Y3        7.43863   0.00343   0.00000   0.03696   0.03342   7.47205
    Z3       20.96477  -0.00510   0.00000   0.01020   0.00921  20.97398
    X4      -19.01698  -0.00245   0.00000  -0.00988  -0.01122 -19.02820
    Y4        5.43033  -0.00275   0.00000   0.01156   0.00764   5.43797
    Z4       21.19655  -0.00073   0.00000  -0.01227  -0.01297  21.18358
    X5      -19.28885  -0.00121   0.00000   0.00082  -0.00015 -19.28900
    Y5        4.12931   0.00002   0.00000   0.00148  -0.00223   4.12708
    Z5       23.46401  -0.00202   0.00000  -0.02024  -0.02077  23.44324
    X6      -17.81454   0.00028   0.00000   0.00625   0.00518 -17.80936
    Y6        4.78680   0.00030   0.00000   0.00251  -0.00059   4.78621
    Z6       25.54974  -0.00131   0.00000  -0.02174  -0.02239  25.52735
    X7      -16.05003   0.00155   0.00000   0.00882   0.00727 -16.04276
    Y7        6.73840   0.00189   0.00000   0.00434   0.00164   6.74004
    Z7       25.33652  -0.00087   0.00000  -0.00980  -0.01074  25.32578
    X8      -14.39698  -0.00003   0.00000  -0.00022  -0.00251 -14.39949
    Y8        9.57133  -0.00030   0.00000   0.01636   0.01377   9.58510
    Z8       22.94600   0.00020   0.00000   0.00635   0.00501  22.95101
    X9      -20.17706   0.00011   0.00000  -0.00654  -0.00780 -20.18486
    Y9        4.91570  -0.00026   0.00000   0.00810   0.00370   4.91940
    Z9       19.56544   0.00028   0.00000  -0.01203  -0.01263  19.55281
   X10      -20.65905   0.00041   0.00000   0.00878   0.00818 -20.65086
   Y10        2.59126   0.00019   0.00000  -0.00433  -0.00834   2.58291
   Z10       23.60630  -0.00014   0.00000  -0.01872  -0.01902  23.58728
   X11      -18.01977   0.00007   0.00000   0.00772   0.00694 -18.01283
   Y11        3.76412   0.00017   0.00000  -0.00103  -0.00395   3.76016
   Z11       27.33047  -0.00021   0.00000  -0.02301  -0.02353  27.30694
   X12      -14.87441   0.00003   0.00000   0.01232   0.01070 -14.86370
   Y12        7.24752  -0.00013   0.00000  -0.00708  -0.00930   7.23822
   Z12       26.95651  -0.00055   0.00000  -0.01035  -0.01138  26.94512
   X13      -17.18586  -0.01198   0.00000  -0.06247  -0.06472 -17.25058
   Y13        8.84320  -0.01555   0.00000   0.07693   0.07311   8.91631
   Z13       18.58462   0.01130   0.00000   0.05026   0.04909  18.63371
   X14      -15.92454   0.00322   0.00000  -0.03635  -0.03914 -15.96368
   Y14       11.02284   0.02574   0.00000   0.10190   0.09835  11.12119
   Z14       18.18463  -0.00021   0.00000   0.04080   0.03932  18.22395
   X15      -18.30224   0.00042   0.00000  -0.04316  -0.04525 -18.34749
   Y15        8.04069   0.00055   0.00000   0.07042   0.06615   8.10684
   Z15       17.03591   0.00017   0.00000   0.03873   0.03769  17.07359
   X16      -15.97621   0.00187   0.00000   0.00922   0.00618 -15.97002
   Y16       11.94449  -0.00182   0.00000   0.04611   0.04232  11.98681
   Z16       16.34199  -0.00152   0.00000   0.01075   0.00916  16.35115
   X17      -14.72265   0.00405   0.00000   0.05382   0.05088 -14.67177
   Y17       11.88917  -0.00195   0.00000   0.03349   0.03042  11.91959
   Z17       19.61430   0.00005   0.00000   0.00790   0.00628  19.62058
   X18       -1.84316   0.00485   0.00000   0.02427   0.02485  -1.81831
   Y18       -3.41547  -0.00088   0.00000  -0.00283  -0.00351  -3.41898
   Z18       14.10207  -0.00127   0.00000  -0.01313  -0.01320  14.08887
   X19      -15.84263  -0.00483   0.00000  -0.02021  -0.01984 -15.86247
   Y19       -2.51408   0.00130   0.00000  -0.00494  -0.00898  -2.52305
   Z19       14.10151  -0.00148   0.00000  -0.01310  -0.01290  14.08861
   X20      -13.25657  -0.00390   0.00000  -0.01523  -0.01592 -13.27249
   Y20        2.53913   0.00419   0.00000   0.01391   0.01119   2.55032
   Z20       19.79854   0.00097   0.00000   0.01061   0.01011  19.80866
   X21       -4.41117   0.00364   0.00000   0.01698   0.01890  -4.39227
   Y21       -8.31160  -0.00322   0.00000  -0.01887  -0.01944  -8.33104
   Z21       19.94631   0.00141   0.00000   0.01243   0.01303  19.95934
   X22       -6.41335  -0.00231   0.00000   0.01097   0.01038  -6.40298
   Y22        1.31755  -0.01507   0.00000  -0.02121  -0.02321   1.29434
   Z22       12.25554   0.01444   0.00000   0.01154   0.01101  12.26655
   X23      -11.31823   0.00342   0.00000  -0.00861  -0.00716 -11.32539
   Y23       -7.23183   0.01465   0.00000   0.00745   0.00429  -7.22754
   Z23       12.39742   0.01492   0.00000   0.00967   0.01032  12.40774
   X24       -6.80797  -0.00951   0.00000  -0.01859  -0.01902  -6.82699
   Y24        1.64683  -0.01222   0.00000  -0.00117  -0.00212   1.64471
   Z24       21.56266  -0.01470   0.00000  -0.01070  -0.01126  21.55140
   X25      -10.89137   0.01028   0.00000   0.02136   0.02309 -10.86828
   Y25       -7.31811   0.01044   0.00000  -0.00602  -0.00793  -7.32604
   Z25       21.69547  -0.01513   0.00000  -0.01061  -0.00995  21.68551
   X26       -4.59809  -0.01222   0.00000   0.00359   0.00446  -4.59362
   Y26       -4.89478   0.01115   0.00000   0.01175   0.01016  -4.88462
   Z26       12.08728   0.01548   0.00000   0.00749   0.00768  12.09496
   X27      -13.09112   0.01224   0.00000   0.00353   0.00349 -13.08764
   Y27       -1.01636  -0.01198   0.00000  -0.02500  -0.02863  -1.04499
   Z27       12.02606   0.01528   0.00000   0.00984   0.00978  12.03585
   X28      -12.86277   0.01728   0.00000   0.01302   0.01311 -12.84966
   Y28       -0.48170  -0.00467   0.00000   0.00421   0.00185  -0.47984
   Z28       21.86081  -0.01555   0.00000  -0.00892  -0.00905  21.85176
   X29       -4.81247  -0.01611   0.00000  -0.01048  -0.00926  -4.82173
   Y29       -5.18198   0.00291   0.00000  -0.01185  -0.01228  -5.19426
   Z29       21.93599  -0.01551   0.00000  -0.00862  -0.00839  21.92760
   X30       -5.96763   0.00112   0.00000  -0.00833  -0.00952  -5.97716
   Y30        3.55855   0.00443   0.00000  -0.00469  -0.00686   3.55168
   Z30       10.03019  -0.00437   0.00000   0.00725   0.00643  10.03662
   X31      -11.57354  -0.00065   0.00000   0.00853   0.01049 -11.56305
   Y31       -9.59376  -0.00479   0.00000  -0.00437  -0.00785  -9.60161
   Z31       10.23824  -0.00432   0.00000   0.00330   0.00425  10.24249
   X32       -5.05391   0.00354   0.00000  -0.00009  -0.00084  -5.05475
   Y32        3.23188   0.00336   0.00000  -0.00731  -0.00758   3.22431
   Z32       23.73671   0.00453   0.00000  -0.00348  -0.00428  23.73242
   X33      -12.62573  -0.00341   0.00000   0.00323   0.00537 -12.62036
   Y33       -8.83628  -0.00311   0.00000   0.00020  -0.00185  -8.83813
   Z33       23.92831   0.00453   0.00000  -0.00368  -0.00279  23.92552
   X34       -5.02810   0.00174   0.00000   0.01610   0.01618  -5.01192
   Y34       -1.73010   0.00118   0.00000   0.00203   0.00015  -1.72995
   Z34       10.56106  -0.00480   0.00000  -0.01660  -0.01680  10.54426
   X35      -12.65674  -0.00199   0.00000  -0.01314  -0.01244 -12.66918
   Y35       -4.29357  -0.00027   0.00000  -0.01231  -0.01601  -4.30958
   Z35       10.62095  -0.00493   0.00000  -0.01681  -0.01648  10.60447
   X36      -10.00893  -0.00086   0.00000  -0.00575  -0.00598 -10.01491
   Y36        1.03421   0.00204   0.00000   0.01338   0.01188   1.04609
   Z36       23.35420   0.00485   0.00000   0.01384   0.01344  23.36764
   X37       -7.65541   0.00038   0.00000   0.00646   0.00808  -7.64732
   Y37       -6.68596  -0.00174   0.00000  -0.01759  -0.01851  -6.70447
   Z37       23.44912   0.00479   0.00000   0.01456   0.01505  23.46417
   X38        0.60974   0.00669   0.00000  -0.00226  -0.00239   0.60735
   Y38       -0.06027   0.00221   0.00000   0.00122   0.00155  -0.05872
   Z38       17.52784   0.00197   0.00000   0.00432   0.00377  17.53160
   X39      -18.31223  -0.00675   0.00000   0.00530   0.00654 -18.30569
   Y39       -5.73881  -0.00205   0.00000  -0.00913  -0.01332  -5.75213
   Z39       17.61556   0.00207   0.00000   0.00459   0.00526  17.62082
   X40      -12.00083  -0.00358   0.00000  -0.01327  -0.01499 -12.01582
   Y40        6.47289   0.00879   0.00000  -0.00809  -0.01092   6.46196
   Z40       16.37719  -0.00113   0.00000  -0.00339  -0.00440  16.37278
   X41       -5.68096   0.00210   0.00000   0.00196   0.00473  -5.67623
   Y41      -12.27497  -0.00679   0.00000  -0.00273  -0.00403 -12.27900
   Z41       16.52469  -0.00178   0.00000  -0.00358  -0.00245  16.52223
   X42       -3.34865   0.00300   0.00000   0.01901   0.01844  -3.33021
   Y42        1.39862   0.00403   0.00000   0.00604   0.00501   1.40363
   Z42       14.12388  -0.00179   0.00000  -0.01121  -0.01184  14.11204
   X43      -14.35570  -0.00358   0.00000  -0.01741  -0.01588 -14.37158
   Y43       -7.33789  -0.00367   0.00000  -0.01469  -0.01835  -7.35624
   Z43       14.25303  -0.00139   0.00000  -0.01047  -0.00972  14.24331
   X44       -8.47622   0.00046   0.00000  -0.00662  -0.00770  -8.48392
   Y44        4.14682   0.00534   0.00000   0.01940   0.01782   4.16464
   Z44       19.69954   0.00099   0.00000   0.00611   0.00528  19.70481
   X45       -9.20597  -0.00122   0.00000   0.00919   0.01149  -9.19448
   Y45       -9.89563  -0.00479   0.00000  -0.02407  -0.02580  -9.92143
   Z45       19.89689   0.00166   0.00000   0.01035   0.01128  19.90817
   X46       -3.03080   0.00357   0.00000  -0.00089   0.00035  -3.03045
   Y46       -6.66621  -0.00432   0.00000  -0.00845  -0.00994  -6.67614
   Z46        9.91297  -0.00486   0.00000   0.00133   0.00169   9.91466
   X47      -14.74673  -0.00396   0.00000   0.00990   0.00942 -14.73731
   Y47        0.51188   0.00334   0.00000  -0.00308  -0.00739   0.50449
   Z47        9.76752  -0.00490   0.00000   0.00123   0.00102   9.76854
   X48      -15.16473  -0.00594   0.00000   0.00023   0.00034 -15.16439
   Y48       -0.30624   0.00064   0.00000  -0.01061  -0.01325  -0.31948
   Z48       24.09007   0.00545   0.00000  -0.00083  -0.00092  24.08915
   X49       -2.48531   0.00552   0.00000   0.00286   0.00420  -2.48111
   Y49       -5.41236  -0.00054   0.00000   0.00364   0.00405  -5.40831
   Z49       24.13584   0.00477   0.00000  -0.00234  -0.00215  24.13368
   X50       -2.33873  -0.02095   0.00000  -0.00721  -0.00713  -2.34585
   Y50       -1.03382  -0.00742   0.00000  -0.00935  -0.00984  -1.04366
   Z50       16.70393  -0.00448   0.00000  -0.01589  -0.01624  16.68769
   X51      -15.36302   0.02133   0.00000   0.01070   0.01168 -15.35134
   Y51       -4.79058   0.00610   0.00000  -0.00060  -0.00419  -4.79477
   Z51       16.76839  -0.00480   0.00000  -0.01632  -0.01586  16.75253
   X52      -11.10004   0.00810   0.00000  -0.00114  -0.00213 -11.10217
   Y52        3.50296  -0.02332   0.00000  -0.01838  -0.02091   3.48205
   Z52       17.09117   0.00492   0.00000   0.01493   0.01426  17.10542
   X53       -6.59695  -0.00649   0.00000   0.00502   0.00710  -6.58985
   Y53       -9.29964   0.02110   0.00000   0.00718   0.00575  -9.29388
   Z53       17.31469   0.00409   0.00000   0.01523   0.01601  17.33071
   X54       -7.96218   0.00083   0.00000  -0.00089   0.00022  -7.96196
   Y54       -5.89137  -0.00220   0.00000   0.00818   0.00571  -5.88565
   Z54       11.47421  -0.00327   0.00000   0.00884   0.00924  11.48345
   X55       -9.71941  -0.00098   0.00000   0.00576   0.00548  -9.71393
   Y55       -0.11559   0.00248   0.00000  -0.02056  -0.02346  -0.13905
   Z55       11.37362  -0.00309   0.00000   0.00950   0.00923  11.38285
   X56      -11.65236  -0.00267   0.00000   0.01391   0.01481 -11.63755
   Y56       -3.78836   0.00005   0.00000   0.00052  -0.00147  -3.78983
   Z56       22.51478   0.00327   0.00000  -0.00978  -0.00955  22.50524
   X57       -5.98727   0.00235   0.00000  -0.01199  -0.01155  -5.99881
   Y57       -1.87647   0.00100   0.00000  -0.00644  -0.00709  -1.88356
   Z57       22.51650   0.00337   0.00000  -0.00913  -0.00928  22.50722
   X58       -8.21338  -0.00048   0.00000   0.00269   0.00177  -8.21161
   Y58        2.98450   0.00373   0.00000  -0.01666  -0.01878   2.96572
   Z58       14.81179  -0.00163   0.00000   0.01032   0.00964  14.82142
   X59       -9.46557  -0.00037   0.00000  -0.00128   0.00062  -9.46494
   Y59       -8.86205  -0.00342   0.00000   0.00705   0.00465  -8.85740
   Z59       14.97474  -0.00229   0.00000   0.00958   0.01038  14.98512
   X60       -4.36606   0.00230   0.00000  -0.01369  -0.01405  -4.38011
   Y60        1.06047   0.00252   0.00000  -0.00511  -0.00579   1.05468
   Z60       19.03921   0.00236   0.00000  -0.01033  -0.01089  19.02832
   X61      -13.31281  -0.00273   0.00000   0.01587   0.01741 -13.29539
   Y61       -6.83593  -0.00211   0.00000  -0.00324  -0.00604  -6.84198
   Z61       19.14520   0.00218   0.00000  -0.01072  -0.01006  19.13514
   X62       -4.86048   0.00193   0.00000   0.00403   0.00558  -4.85490
   Y62       -7.39213  -0.00302   0.00000   0.00650   0.00519  -7.38694
   Z62       14.86396  -0.00140   0.00000   0.00975   0.01025  14.87421
   X63      -12.85608  -0.00162   0.00000   0.00111   0.00054 -12.85554
   Y63        1.49585   0.00368   0.00000  -0.01704  -0.02028   1.47557
   Z63       14.74371  -0.00077   0.00000   0.01134   0.01097  14.75468
   X64      -14.77381  -0.00345   0.00000   0.01014   0.01058 -14.76323
   Y64       -2.22857   0.00032   0.00000   0.00034  -0.00282  -2.23139
   Z64       19.17146   0.00163   0.00000  -0.01093  -0.01080  19.16066
   X65       -2.92566   0.00351   0.00000  -0.00679  -0.00604  -2.93169
   Y65       -3.55018   0.00040   0.00000  -0.00779  -0.00811  -3.55829
   Z65       19.16625   0.00130   0.00000  -0.01059  -0.01062  19.15563
   X66       -6.33210   0.03917   0.00000   0.07063   0.07095  -6.26116
   Y66       -2.19669   0.00721   0.00000   0.00541   0.00380  -2.19289
   Z66       15.14369  -0.02505   0.00000  -0.04043  -0.04054  15.10315
   X67      -11.35845  -0.03980   0.00000  -0.06558  -0.06490 -11.42335
   Y67       -3.71242  -0.00824   0.00000  -0.01878  -0.02163  -3.73405
   Z67       15.18183  -0.02483   0.00000  -0.04083  -0.04060  15.14123
   X68       -9.65323  -0.01654   0.00000  -0.02993  -0.02995  -9.68318
   Y68       -0.40200   0.03770   0.00000   0.05770   0.05572  -0.34628
   Z68       18.78795   0.02516   0.00000   0.04127   0.04103  18.82898
   X69       -8.00708   0.01639   0.00000   0.03312   0.03432  -7.97276
   Y69       -5.38910  -0.03595   0.00000  -0.06347  -0.06503  -5.45413
   Z69       18.85232   0.02536   0.00000   0.04042   0.04077  18.89309
   X70       -6.07718  -0.00038   0.00000   0.00003   0.00247  -6.07471
   Y70      -11.59417   0.00112   0.00000   0.00788   0.00576 -11.58841
   Z70       10.67364   0.00087   0.00000   0.01068   0.01173  10.68538
   X71       -0.23064  -0.00108   0.00000  -0.01269  -0.01269  -0.24333
   Y71        0.05772  -0.00067   0.00000  -0.00635  -0.00552   0.05220
   Z71       23.28529  -0.00071   0.00000  -0.01014  -0.01069  23.27460
   X72      -17.54383   0.00107   0.00000   0.01539   0.01669 -17.52714
   Y72       -5.32991   0.00009   0.00000  -0.00375  -0.00703  -5.33694
   Z72       23.47064  -0.00092   0.00000  -0.01088  -0.01029  23.46035
   X73       -8.84161   0.00064   0.00000   0.00272   0.00326  -8.83834
   Y73       -2.91886  -0.00042   0.00000  -0.00476  -0.00676  -2.92561
   Z73       16.98864  -0.00033   0.00000  -0.00062  -0.00057  16.98808
         Item               Value     Threshold  Converged?
 Maximum Force            0.039804     0.000450     NO 
 RMS     Force            0.008992     0.000300     NO 
 Maximum Displacement     0.098351     0.001800     NO 
 RMS     Displacement     0.020196     0.001200     NO 
 Predicted change in Energy=-1.232703D-02
 GradGradGradGradGradGradGradGradGradGradGradGradGradGradGradGradGradGrad

 Unable to Open any file for archive entry.
 1\1\GINC-X11P1N2\Force\UwB97XD\def2SVP\C8H8Cl1K3O40V1W12(1-)\MAYUMIAO\
 02-Jun-2024\0\\# def2svp wb97xd scrf=(smd,solvent=acetonitrile) g09def
 ault scf=(xqc,maxcycle=64) force guess=read nosymm\\Title Card\\-1,1\C
 l,-9.64160388,8.26813603,10.53806366\C,-8.35432766,4.26036435,12.20968
 86\C,-9.14936257,3.93635086,11.09407722\C,-10.06335047,2.87360798,11.2
 1673097\C,-10.20722071,2.18513869,12.41661964\C,-9.42704595,2.53306449
 ,13.52033877\C,-8.49331246,3.56580759,13.40751017\H,-7.61855509,5.0649
 3133,12.14250123\H,-10.67723879,2.60127809,10.3535851\H,-10.93229619,1
 .37123413,12.49191838\H,-9.53565156,1.99188479,14.46266133\H,-7.871197
 15,3.8352215,14.264769\C,-9.0943677,4.6796178,9.83455948\C,-8.42690613
 ,5.83303466,9.62289385\H,-9.68512672,4.25494949,9.01501295\H,-8.454243
 78,6.32075232,8.64780743\H,-7.79088961,6.29147644,10.3794384\O,-0.9753
 574,-1.8073891,7.46249428\O,-8.38355738,-1.33039198,7.46219799\O,-7.01
 507546,1.34364858,10.47693833\O,-2.33429019,-4.39830907,10.55513455\W,
 -3.39379881,0.69721865,6.48535244\W,-5.989352,-3.82691862,6.56043185\W
 ,-3.60262329,0.87146582,11.41046979\W,-5.76346552,-3.87257952,11.48074
 628\W,-2.43320258,-2.59020505,6.39631362\W,-6.92752428,-0.53783424,6.3
 6391799\W,-6.80668509,-0.2549022,11.56824066\W,-2.54664992,-2.74218465
 ,11.60802668\O,-3.15793605,1.88310132,5.30774544\O,-6.1244537,-5.07679
 693,5.41784198\O,-2.67441413,1.71023914,12.56092363\O,-6.68125083,-4.6
 7595766,12.66231519\O,-2.66075567,-0.91552799,5.58867153\O,-6.69766095
 ,-2.27205723,5.62036595\O,-5.29649725,0.54728013,12.35851107\O,-4.0510
 6655,-3.53805506,12.4087418\O,0.32265824,-0.03189239,9.27533196\O,-9.6
 9041301,-3.0368462,9.32175339\O,-6.35056551,3.4253048,8.6664333\O,-3.0
 0623199,-6.49563242,8.74448758\O,-1.77203103,0.74011769,7.47403721\O,-
 7.59670915,-3.88304296,7.54237964\O,-4.48542205,2.19440295,10.42454524
 \O,-4.87159131,-5.23654124,10.52898079\O,-1.60383181,-3.52760459,5.245
 71942\O,-7.80363399,0.27087603,5.16874768\O,-8.0248279,-0.16205323,12.
 74791727\O,-1.31516839,-2.86409706,12.77213425\W,-1.23760012,-0.547073
 92,8.83933736\W,-8.12976122,-2.53506629,8.87344798\W,-5.87389041,1.853
 68658,9.0442564\W,-3.49095553,-4.92115509,9.16254123\O,-4.21340419,-3.
 11757713,6.07189082\O,-5.1432906,-0.06116794,6.01865802\O,-6.16616491,
 -2.00471276,11.91431009\O,-3.16832438,-0.99298673,11.9152193\O,-4.3463
 3269,1.57933024,7.83805995\O,-5.00896305,-4.68959416,7.92429028\O,-2.3
 1042077,0.56117612,10.07511389\O,-7.04483455,-3.61741975,10.13120168\O
 ,-2.57205739,-3.91174731,7.86566891\O,-6.80314611,0.79157011,7.8020375
 2\O,-7.8179644,-1.17931074,10.14510052\O,-1.54819018,-1.87867546,10.14
 234397\O,-3.35080497,-1.16243757,8.01369419\O,-6.01063211,-1.96452721,
 8.03387866\O,-5.10826783,-0.21273167,9.94215668\O,-4.23716443,-2.85178
 628,9.97621855\K,-3.21590687,-6.13537299,5.64824818\K,-0.12204893,0.03
 054409,12.3220465\K,-9.28379421,-2.82046636,12.42012969\V,-4.67877707,
 -1.54459307,8.99000271\\Version=ES64L-G16RevC.01\HF=-7327.7019307\S2=1
 .022272\S2-1=0.\S2A=0.178346\RMSD=1.710e-09\RMSF=8.992e-03\Dipole=1.28
 21499,-7.1636022,5.6164248\Quadrupole=-5.893487,28.9315063,-23.0380193
 ,94.1107514,129.0572305,-68.8699564\PG=C01 [X(C8H8Cl1K3O40V1W12)]\\@
 The archive entry for this job was punched.


 SCIENCE IS LONG AND LIFE IS SHORT.

                     DON MOSER IN THE FEBRUARY 1979 SMITHSONIAN
 Job cpu time:       0 days 20 hours 47 minutes 38.5 seconds.
 Elapsed time:       0 days  0 hours 23 minutes 44.6 seconds.
 File lengths (MBytes):  RWF=   1868 Int=      0 D2E=      0 Chk=    306 Scr=      1
 Normal termination of Gaussian 16 at Sun Jun  2 22:50:20 2024.
