 Entering Gaussian System, Link 0=g16
 Input=JOBS/65_A.gjf
 Output=JOBS/65_A.log
 Initial command:
 /data/app/gaussian/C01-avx2//g16/l1.exe "/tmp/Gau-705135.inp" -scrdir="/tmp/"
 Entering Link 1 = /data/app/gaussian/C01-avx2//g16/l1.exe PID=    705136.
  
 Copyright (c) 1988-2019, Gaussian, Inc.  All Rights Reserved.
  
 This is part of the Gaussian(R) 16 program.  It is based on
 the Gaussian(R) 09 system (copyright 2009, Gaussian, Inc.),
 the Gaussian(R) 03 system (copyright 2003, Gaussian, Inc.),
 the Gaussian(R) 98 system (copyright 1998, Gaussian, Inc.),
 the Gaussian(R) 94 system (copyright 1995, Gaussian, Inc.),
 the Gaussian 92(TM) system (copyright 1992, Gaussian, Inc.),
 the Gaussian 90(TM) system (copyright 1990, Gaussian, Inc.),
 the Gaussian 88(TM) system (copyright 1988, Gaussian, Inc.),
 the Gaussian 86(TM) system (copyright 1986, Carnegie Mellon
 University), and the Gaussian 82(TM) system (copyright 1983,
 Carnegie Mellon University). Gaussian is a federally registered
 trademark of Gaussian, Inc.
  
 This software contains proprietary and confidential information,
 including trade secrets, belonging to Gaussian, Inc.
  
 This software is provided under written license and may be
 used, copied, transmitted, or stored only in accord with that
 written license.
  
 The following legend is applicable only to US Government
 contracts under FAR:
  
                    RESTRICTED RIGHTS LEGEND
  
 Use, reproduction and disclosure by the US Government is
 subject to restrictions as set forth in subparagraphs (a)
 and (c) of the Commercial Computer Software - Restricted
 Rights clause in FAR 52.227-19.
  
 Gaussian, Inc.
 340 Quinnipiac St., Bldg. 40, Wallingford CT 06492
  
  
 ---------------------------------------------------------------
 Warning -- This program may not be used in any manner that
 competes with the business of Gaussian, Inc. or will provide
 assistance to any competitor of Gaussian, Inc.  The licensee
 of this program is prohibited from giving any competitor of
 Gaussian, Inc. access to this program.  By using this program,
 the user acknowledges that Gaussian, Inc. is engaged in the
 business of creating and licensing software in the field of
 computational chemistry and represents and warrants to the
 licensee that it is not a competitor of Gaussian, Inc. and that
 it will not use this program in any manner prohibited above.
 ---------------------------------------------------------------
  

 Cite this work as:
 Gaussian 16, Revision C.01,
 M. J. Frisch, G. W. Trucks, H. B. Schlegel, G. E. Scuseria, 
 M. A. Robb, J. R. Cheeseman, G. Scalmani, V. Barone, 
 G. A. Petersson, H. Nakatsuji, X. Li, M. Caricato, A. V. Marenich, 
 J. Bloino, B. G. Janesko, R. Gomperts, B. Mennucci, H. P. Hratchian, 
 J. V. Ortiz, A. F. Izmaylov, J. L. Sonnenberg, D. Williams-Young, 
 F. Ding, F. Lipparini, F. Egidi, J. Goings, B. Peng, A. Petrone, 
 T. Henderson, D. Ranasinghe, V. G. Zakrzewski, J. Gao, N. Rega, 
 G. Zheng, W. Liang, M. Hada, M. Ehara, K. Toyota, R. Fukuda, 
 J. Hasegawa, M. Ishida, T. Nakajima, Y. Honda, O. Kitao, H. Nakai, 
 T. Vreven, K. Throssell, J. A. Montgomery, Jr., J. E. Peralta, 
 F. Ogliaro, M. J. Bearpark, J. J. Heyd, E. N. Brothers, K. N. Kudin, 
 V. N. Staroverov, T. A. Keith, R. Kobayashi, J. Normand, 
 K. Raghavachari, A. P. Rendell, J. C. Burant, S. S. Iyengar, 
 J. Tomasi, M. Cossi, J. M. Millam, M. Klene, C. Adamo, R. Cammi, 
 J. W. Ochterski, R. L. Martin, K. Morokuma, O. Farkas, 
 J. B. Foresman, and D. J. Fox, Gaussian, Inc., Wallingford CT, 2019.
 
 ******************************************
 Gaussian 16:  ES64L-G16RevC.01  3-Jul-2019
                 3-Jun-2024 
 ******************************************
 %chk=a.chk
 %nprocshared=56
 Will use up to   56 processors via shared memory.
 %mem=96gb
 ----------------------------------------------------------------------
 # def2svp wb97xd scrf=(smd,solvent=acetonitrile) g09default scf=(xqc,m
 axcycle=64) force guess=read nosymm
 ----------------------------------------------------------------------
 1/10=7,30=1,38=1,158=3,167=1/1,3;
 2/12=2,15=1,17=6,18=5,40=1/2;
 3/5=43,7=101,11=2,25=1,27=10,30=1,70=32201,71=1,72=2,74=-58,75=-4,116=-2,158=3/1,2,3;
 4/5=1,60=-1/1;
 5/5=2,7=64,8=3,13=1,38=6,53=2,87=10/2,8;
 6/7=2,8=2,9=2,10=2,28=1,87=10/1;
 7/29=1,30=1,87=10/1,2,3,16;
 1/10=7,30=1,158=3,167=1/3;
 99//99;
 Using 2006 physical constants.
 ----------
 Title Card
 ----------
 Symbolic Z-matrix:
 Charge = -1 Multiplicity = 1
 17                   -9.65857   8.26999   10.53521 
 6                    -8.37123   4.27555   12.20356 
 6                    -9.17025   3.94879   11.0915 
 6                    -10.08219   2.88489   11.21998 
 6                    -10.20856   2.18871   12.41787 
 6                    -9.41267   2.52914   13.51275 
 6                    -8.49172   3.57298   13.39806 
 1                    -7.64861   5.09191   12.13864 
 1                    -10.70967   2.61795   10.36485 
 1                    -10.93572   1.37733   12.50011 
 1                    -9.50074   1.97624   14.4503 
 1                    -7.86795   3.84905   14.25196 
 6                    -9.12154   4.69697   9.83446 
 6                    -8.43644   5.84054   9.62576 
 1                    -9.73028   4.28774   9.02005 
 1                    -8.46917   6.34607   8.66042 
 1                    -7.77479   6.27021   10.37769 
 8                    -0.97541  -1.81596   7.45786 
 8                    -8.3776   -1.32591   7.46192 
 8                    -7.01016   1.33759   10.48324 
 8                    -2.33149  -4.39776   10.55502 
 74                   -3.38391   0.70706   6.49713 
 74                   -5.99219  -3.8377    6.5668 
 74                   -3.59112   0.87672   11.40189 
 74                   -5.7676   -3.88375   11.47491 
 74                   -2.44062  -2.58782   6.38491 
 74                   -6.9137   -0.54269   6.3546 
 74                   -6.79329  -0.2618    11.58044 
 74                   -2.55212  -2.74346   11.61644 
 8                    -3.1444    1.89926   5.32673 
 8                    -6.13078  -5.0869    5.4239 
 8                    -2.66446   1.71608   12.55314 
 8                    -6.68164  -4.69244   12.65535 
 8                    -2.66164  -0.91186   5.58767 
 8                    -6.69359  -2.27688   5.62079 
 8                    -5.28365   0.54264   12.35944 
 8                    -4.05355  -3.54236   12.40894 
 8                     0.33461  -0.05355   9.27181 
 8                    -9.69269  -3.02344   9.31834 
 8                    -6.36259   3.4184    8.67127 
 8                    -2.99383  -6.49546   8.74572 
 8                    -1.76362   0.73508   7.47828 
 8                    -7.59739  -3.88242   7.54613 
 8                    -4.48121   2.19386   10.42331 
 8                    -4.86853  -5.2394    10.52415 
 8                    -1.61224  -3.52237   5.23157 
 8                    -7.78963   0.26296   5.15746 
 8                    -8.00836  -0.1614    12.76231 
 8                    -1.32316  -2.86779   12.78292 
 74                   -1.22804  -0.56458   8.8396 
 74                   -8.13029  -2.52428   8.87368 
 74                   -5.88184   1.8473    9.04686 
 74                   -3.48025  -4.92085   9.16046 
 8                    -4.21668  -3.12183   6.06809 
 8                    -5.13551  -0.05667   6.01793 
 8                    -6.16574  -2.01341   11.92136 
 8                    -3.16117  -0.99312   11.91513 
 8                    -4.34284   1.58075   7.844 
 8                    -5.00695  -4.69836   7.922 
 8                    -2.29805   0.55825   10.07449 
 8                    -7.04891  -3.62029   10.13301 
 8                    -2.57253  -3.91436   7.85921 
 8                    -6.7994    0.78864   7.80069 
 8                    -7.81367  -1.18027   10.15241 
 8                    -1.54117  -1.88441   10.14654 
 8                    -3.34731  -1.16458   8.01462 
 8                    -6.00667  -1.9673    8.03435 
 8                    -5.10264  -0.2155    9.94299 
 8                    -4.2362   -2.85382   9.97589 
 19                   -3.21997  -6.14118   5.64866 
 19                   -0.12809   0.00635   12.31642 
 19                   -9.2879   -2.81891   12.41004 
 23                   -4.67527  -1.54657   8.9899 
 

 GradGradGradGradGradGradGradGradGradGradGradGradGradGradGradGradGradGrad
 Berny optimization.
 Initialization pass.
 Trust Radius=3.00D-01 FncErr=1.00D-07 GrdErr=1.00D-07 EigMax=2.50D+02 EigMin=1.00D-04
 Number of steps in this run=      2 maximum allowed number of steps=      2.
 GradGradGradGradGradGradGradGradGradGradGradGradGradGradGradGradGradGrad

 Symmetry turned off by external request.
 Stoichiometry    C8H8ClK3O40VW12(1-)
 Framework group  C1[X(C8H8ClK3O40VW12)]
 Deg. of freedom   213
 Full point group                 C1      NOp   1
                          Input orientation:                          
 ---------------------------------------------------------------------
 Center     Atomic      Atomic             Coordinates (Angstroms)
 Number     Number       Type             X           Y           Z
 ---------------------------------------------------------------------
      1         17           0       -9.658574    8.269991   10.535215
      2          6           0       -8.371235    4.275553   12.203558
      3          6           0       -9.170252    3.948786   11.091502
      4          6           0      -10.082194    2.884894   11.219983
      5          6           0      -10.208561    2.188710   12.417875
      6          6           0       -9.412667    2.529137   13.512750
      7          6           0       -8.491720    3.572978   13.398055
      8          1           0       -7.648612    5.091907   12.138635
      9          1           0      -10.709673    2.617947   10.364847
     10          1           0      -10.935721    1.377331   12.500114
     11          1           0       -9.500742    1.976236   14.450295
     12          1           0       -7.867954    3.849051   14.251962
     13          6           0       -9.121542    4.696974    9.834464
     14          6           0       -8.436439    5.840540    9.625759
     15          1           0       -9.730276    4.287738    9.020050
     16          1           0       -8.469170    6.346072    8.660418
     17          1           0       -7.774793    6.270207   10.377692
     18          8           0       -0.975411   -1.815961    7.457858
     19          8           0       -8.377599   -1.325914    7.461925
     20          8           0       -7.010163    1.337586   10.483242
     21          8           0       -2.331494   -4.397760   10.555022
     22         74           0       -3.383914    0.707060    6.497131
     23         74           0       -5.992190   -3.837701    6.566796
     24         74           0       -3.591119    0.876715   11.401888
     25         74           0       -5.767596   -3.883745   11.474911
     26         74           0       -2.440621   -2.587819    6.384907
     27         74           0       -6.913699   -0.542694    6.354604
     28         74           0       -6.793291   -0.261795   11.580438
     29         74           0       -2.552121   -2.743461   11.616441
     30          8           0       -3.144398    1.899264    5.326726
     31          8           0       -6.130778   -5.086900    5.423896
     32          8           0       -2.664465    1.716083   12.553142
     33          8           0       -6.681638   -4.692441   12.655347
     34          8           0       -2.661639   -0.911855    5.587668
     35          8           0       -6.693587   -2.276878    5.620794
     36          8           0       -5.283649    0.542644   12.359442
     37          8           0       -4.053548   -3.542362   12.408945
     38          8           0        0.334614   -0.053553    9.271810
     39          8           0       -9.692687   -3.023441    9.318344
     40          8           0       -6.362586    3.418404    8.671270
     41          8           0       -2.993832   -6.495461    8.745717
     42          8           0       -1.763620    0.735078    7.478277
     43          8           0       -7.597392   -3.882421    7.546131
     44          8           0       -4.481215    2.193863   10.423305
     45          8           0       -4.868525   -5.239403   10.524154
     46          8           0       -1.612238   -3.522367    5.231566
     47          8           0       -7.789626    0.262960    5.157461
     48          8           0       -8.008359   -0.161399   12.762307
     49          8           0       -1.323164   -2.867787   12.782921
     50         74           0       -1.228042   -0.564577    8.839602
     51         74           0       -8.130293   -2.524282    8.873681
     52         74           0       -5.881845    1.847304    9.046865
     53         74           0       -3.480250   -4.920851    9.160459
     54          8           0       -4.216678   -3.121831    6.068091
     55          8           0       -5.135508   -0.056666    6.017926
     56          8           0       -6.165736   -2.013405   11.921356
     57          8           0       -3.161174   -0.993120   11.915132
     58          8           0       -4.342837    1.580754    7.843995
     59          8           0       -5.006946   -4.698358    7.921999
     60          8           0       -2.298051    0.558248   10.074489
     61          8           0       -7.048914   -3.620292   10.133006
     62          8           0       -2.572534   -3.914360    7.859215
     63          8           0       -6.799400    0.788637    7.800691
     64          8           0       -7.813675   -1.180273   10.152405
     65          8           0       -1.541167   -1.884411   10.146538
     66          8           0       -3.347308   -1.164582    8.014621
     67          8           0       -6.006672   -1.967301    8.034347
     68          8           0       -5.102638   -0.215500    9.942994
     69          8           0       -4.236201   -2.853821    9.975888
     70         19           0       -3.219974   -6.141179    5.648658
     71         19           0       -0.128094    0.006346   12.316423
     72         19           0       -9.287903   -2.818908   12.410036
     73         23           0       -4.675266   -1.546573    8.989904
 ---------------------------------------------------------------------
 Rotational constants (GHZ):           0.0172014           0.0132026           0.0129812
 Standard basis: def2SVP (5D, 7F)
  1217 basis functions,  2313 primitive gaussians,  1337 cartesian basis functions
   321 alpha electrons      321 beta electrons
       nuclear repulsion energy     20968.4465502270 Hartrees.
 NAtoms=   73 NActive=   73 NUniq=   73 SFac= 1.00D+00 NAtFMM=   60 NAOKFM=T Big=T
 Integral buffers will be    131072 words long.
 Raffenetti 2 integral format.
 Two-electron integral symmetry is turned off.
 Nuclear repulsion after empirical dispersion term =    20968.1703685057 Hartrees.
 Force PCM accuracy= 1.00D-10.
 ------------------------------------------------------------------------------
 Polarizable Continuum Model (PCM)
 =================================
 Model                : PCM (using non-symmetric T matrix).
 Atomic radii         : SMD-Coulomb.
 Polarization charges : Total charges.
 Charge compensation  : None.
 Solution method      : On-the-fly selection.
 Cavity type          : VdW (van der Waals Surface) (Alpha=1.000).
 Cavity algorithm     : GePol (No added spheres)
                        Default sphere list used, NSphG=   73.
                        Lebedev-Laikov grids with approx.  5.0 points / Ang**2.
                        Smoothing algorithm: York/Karplus (Gamma=1.0000).
                        Polarization charges: spherical gaussians, with
                                              point-specific exponents (IZeta= 3).
                        Self-potential: point-specific (ISelfS= 7).
                        Self-field    : sphere-specific E.n sum rule (ISelfD= 2).
 1st derivatives      : Analytical E(r).r(x)/FMM algorithm (CHGder, D1EAlg=3).
                        Cavity 1st derivative terms included.
 Solvent              : Acetonitrile, Eps=  35.688000 Eps(inf)=   1.806874
 ------------------------------------------------------------------------------
 ------------------------------------------------------------------------------
 Atomic radii for non-electrostatic terms: SMD-CDS.
 ------------------------------------------------------------------------------
 Nuclear repulsion after PCM non-electrostatic terms =    20968.1646407312 Hartrees.
 One-electron integrals computed using PRISM.
   1 Symmetry operations used in ECPInt.
 ECPInt:  NShTT=  127765 NPrTT=  468030 LenC2=   96477 LenP2D=  220758.
 LDataN:  DoStor=T MaxTD1= 8 Len=  415
 NBasis=  1217 RedAO= T EigKep=  1.38D-04  NBF=  1217
 NBsUse=  1217 1.00D-06 EigRej= -1.00D+00 NBFU=  1217
 Defaulting to unpruned grid for atomic number  74.
 Defaulting to unpruned grid for atomic number  74.
 Defaulting to unpruned grid for atomic number  74.
 Defaulting to unpruned grid for atomic number  74.
 Defaulting to unpruned grid for atomic number  74.
 Defaulting to unpruned grid for atomic number  74.
 Defaulting to unpruned grid for atomic number  74.
 Defaulting to unpruned grid for atomic number  74.
 Initial guess from the checkpoint file:  "a.chk"
 B after Tr=     0.001127   -0.000278    0.000335
         Rot=    1.000000   -0.000033    0.000006    0.000035 Ang=  -0.01 deg.
 Requested convergence on RMS density matrix=1.00D-08 within  64 cycles.
 Requested convergence on MAX density matrix=1.00D-06.
 Requested convergence on             energy=1.00D-06.
 No special actions if energy rises.
 Defaulting to unpruned grid for atomic number  74.
 Defaulting to unpruned grid for atomic number  74.
 Defaulting to unpruned grid for atomic number  74.
 Defaulting to unpruned grid for atomic number  74.
 Defaulting to unpruned grid for atomic number  74.
 Defaulting to unpruned grid for atomic number  74.
 Defaulting to unpruned grid for atomic number  74.
 Defaulting to unpruned grid for atomic number  74.
 Defaulting to unpruned grid for atomic number  74.
 Defaulting to unpruned grid for atomic number  74.
 Defaulting to unpruned grid for atomic number  74.
 Defaulting to unpruned grid for atomic number  74.
 Defaulting to unpruned grid for atomic number  74.
 Defaulting to unpruned grid for atomic number  74.
 Defaulting to unpruned grid for atomic number  74.
 Defaulting to unpruned grid for atomic number  74.
 Defaulting to unpruned grid for atomic number  74.
 Defaulting to unpruned grid for atomic number  74.
 Defaulting to unpruned grid for atomic number  74.
 Defaulting to unpruned grid for atomic number  74.
 Defaulting to unpruned grid for atomic number  74.
 Defaulting to unpruned grid for atomic number  74.
 Defaulting to unpruned grid for atomic number  74.
 Defaulting to unpruned grid for atomic number  74.
 Defaulting to unpruned grid for atomic number  74.
 Defaulting to unpruned grid for atomic number  74.
 Defaulting to unpruned grid for atomic number  74.
 Defaulting to unpruned grid for atomic number  74.
 Defaulting to unpruned grid for atomic number  74.
 Defaulting to unpruned grid for atomic number  74.
 Defaulting to unpruned grid for atomic number  74.
 Defaulting to unpruned grid for atomic number  74.
 Defaulting to unpruned grid for atomic number  74.
 Defaulting to unpruned grid for atomic number  74.
 Defaulting to unpruned grid for atomic number  74.
 Defaulting to unpruned grid for atomic number  74.
 Defaulting to unpruned grid for atomic number  74.
 Defaulting to unpruned grid for atomic number  74.
 Defaulting to unpruned grid for atomic number  74.
 Defaulting to unpruned grid for atomic number  74.
 Defaulting to unpruned grid for atomic number  74.
 Defaulting to unpruned grid for atomic number  74.
 Defaulting to unpruned grid for atomic number  74.
 Defaulting to unpruned grid for atomic number  74.
 Defaulting to unpruned grid for atomic number  74.
 Defaulting to unpruned grid for atomic number  74.
 Defaulting to unpruned grid for atomic number  74.
 Defaulting to unpruned grid for atomic number  74.
 Defaulting to unpruned grid for atomic number  74.
 Defaulting to unpruned grid for atomic number  74.
 Defaulting to unpruned grid for atomic number  74.
 Defaulting to unpruned grid for atomic number  74.
 Defaulting to unpruned grid for atomic number  74.
 Defaulting to unpruned grid for atomic number  74.
 Defaulting to unpruned grid for atomic number  74.
 Defaulting to unpruned grid for atomic number  74.
 Inv3:  Mode=1 IEnd=    87609648.
 Iteration    1 A*A^-1 deviation from unit magnitude is 4.55D-15 for   2916.
 Iteration    1 A*A^-1 deviation from orthogonality  is 3.11D-15 for   3892   2378.
 Iteration    1 A^-1*A deviation from unit magnitude is 4.77D-15 for   4728.
 Iteration    1 A^-1*A deviation from orthogonality  is 5.89D-10 for   3271   3265.
 Iteration    2 A*A^-1 deviation from unit magnitude is 5.33D-15 for   2343.
 Iteration    2 A*A^-1 deviation from orthogonality  is 5.33D-15 for   3265   2069.
 Iteration    2 A^-1*A deviation from unit magnitude is 1.33D-15 for   3088.
 Iteration    2 A^-1*A deviation from orthogonality  is 6.17D-16 for   1821    673.
 Error on total polarization charges =  0.01619
 SCF Done:  E(RwB97XD) =  -7327.70209753     A.U. after   12 cycles
            NFock= 12  Conv=0.27D-08     -V/T= 2.0832
 SMD-CDS (non-electrostatic) energy       (kcal/mol) =      -3.59
 (included in total energy above)
 QCSCF skips out because SCF is already converged.

 **********************************************************************

            Population analysis using the SCF Density.

 **********************************************************************

 Alpha  occ. eigenvalues -- -197.29342-130.00108-130.00018-130.00015-101.48385
 Alpha  occ. eigenvalues --  -22.62477 -19.33608 -19.33603 -19.33599 -19.33576
 Alpha  occ. eigenvalues --  -19.30734 -19.30698 -19.30695 -19.30691 -19.30674
 Alpha  occ. eigenvalues --  -19.30671 -19.30667 -19.30644 -19.30584 -19.30370
 Alpha  occ. eigenvalues --  -19.30351 -19.30170 -19.29345 -19.29342 -19.29320
 Alpha  occ. eigenvalues --  -19.29313 -19.29304 -19.29288 -19.29282 -19.29257
 Alpha  occ. eigenvalues --  -19.29226 -19.29195 -19.29194 -19.29172 -19.29169
 Alpha  occ. eigenvalues --  -19.29137 -19.29117 -19.29107 -19.29105 -19.29098
 Alpha  occ. eigenvalues --  -19.29091 -19.29068 -19.29023 -19.28988 -19.28974
 Alpha  occ. eigenvalues --  -19.28884 -19.11432 -19.11424 -19.11416 -13.37511
 Alpha  occ. eigenvalues --  -13.37417 -13.37409 -10.70440 -10.70433 -10.70432
 Alpha  occ. eigenvalues --  -10.70347 -10.70340 -10.70340 -10.70338 -10.70333
 Alpha  occ. eigenvalues --  -10.70328 -10.29833 -10.29314 -10.29282 -10.29028
 Alpha  occ. eigenvalues --  -10.28942 -10.28913 -10.28107 -10.27418  -9.38860
 Alpha  occ. eigenvalues --   -7.13689  -7.13635  -7.13630  -3.23316  -3.23315
 Alpha  occ. eigenvalues --   -3.23297  -3.23291  -3.23290  -3.23255  -3.23251
 Alpha  occ. eigenvalues --   -3.23247  -3.23226  -3.22968  -3.22949  -3.22769
 Alpha  occ. eigenvalues --   -2.91751  -1.94140  -1.94109  -1.94098  -1.87719
 Alpha  occ. eigenvalues --   -1.87673  -1.87659  -1.87624  -1.87493  -1.87472
 Alpha  occ. eigenvalues --   -1.87469  -1.87452  -1.87429  -1.87274  -1.87245
 Alpha  occ. eigenvalues --   -1.87089  -1.86631  -1.86513  -1.86502  -1.86485
 Alpha  occ. eigenvalues --   -1.86457  -1.86435  -1.86349  -1.86328  -1.86314
 Alpha  occ. eigenvalues --   -1.86299  -1.86285  -1.86264  -1.86147  -1.86137
 Alpha  occ. eigenvalues --   -1.86123  -1.86112  -1.86041  -1.86025  -1.85992
 Alpha  occ. eigenvalues --   -1.85921  -1.85901  -1.85803  -1.85716  -1.85663
 Alpha  occ. eigenvalues --   -1.51200  -1.51114  -1.51104  -1.13030  -1.11256
 Alpha  occ. eigenvalues --   -1.11172  -1.11170  -1.08968  -1.08535  -1.08499
 Alpha  occ. eigenvalues --   -1.08324  -1.07562  -1.07495  -1.07490  -1.06906
 Alpha  occ. eigenvalues --   -1.06895  -1.06876  -1.06318  -1.06292  -1.05343
 Alpha  occ. eigenvalues --   -1.05335  -1.04986  -1.04980  -1.04964  -1.04218
 Alpha  occ. eigenvalues --   -1.04214  -1.04187  -1.04044  -1.04016  -1.04005
 Alpha  occ. eigenvalues --   -1.03948  -1.03928  -1.03901  -1.03769  -1.03755
 Alpha  occ. eigenvalues --   -1.03625  -1.03570  -1.03309  -1.03276  -1.03140
 Alpha  occ. eigenvalues --   -1.03128  -1.03060  -1.02979  -0.94354  -0.86668
 Alpha  occ. eigenvalues --   -0.86592  -0.86580  -0.86491  -0.86476  -0.86475
 Alpha  occ. eigenvalues --   -0.86397  -0.86394  -0.86385  -0.86359  -0.82799
 Alpha  occ. eigenvalues --   -0.79704  -0.71640  -0.69640  -0.67975  -0.64608
 Alpha  occ. eigenvalues --   -0.63980  -0.63910  -0.63890  -0.63290  -0.63269
 Alpha  occ. eigenvalues --   -0.63157  -0.62915  -0.62662  -0.62600  -0.61963
 Alpha  occ. eigenvalues --   -0.61609  -0.61589  -0.61497  -0.61251  -0.61233
 Alpha  occ. eigenvalues --   -0.61184  -0.60418  -0.59476  -0.59450  -0.59441
 Alpha  occ. eigenvalues --   -0.59401  -0.59363  -0.58607  -0.58008  -0.57972
 Alpha  occ. eigenvalues --   -0.57892  -0.57053  -0.57027  -0.56999  -0.56287
 Alpha  occ. eigenvalues --   -0.56267  -0.56113  -0.55710  -0.54873  -0.54814
 Alpha  occ. eigenvalues --   -0.54769  -0.54511  -0.54241  -0.54114  -0.54105
 Alpha  occ. eigenvalues --   -0.54034  -0.53963  -0.53261  -0.53227  -0.53090
 Alpha  occ. eigenvalues --   -0.53051  -0.52912  -0.52734  -0.52703  -0.52654
 Alpha  occ. eigenvalues --   -0.52626  -0.52513  -0.52465  -0.52390  -0.51624
 Alpha  occ. eigenvalues --   -0.51609  -0.51360  -0.51330  -0.51297  -0.51250
 Alpha  occ. eigenvalues --   -0.51190  -0.51170  -0.50947  -0.50792  -0.50619
 Alpha  occ. eigenvalues --   -0.50596  -0.50589  -0.49924  -0.49906  -0.49303
 Alpha  occ. eigenvalues --   -0.49272  -0.49232  -0.49219  -0.49168  -0.49089
 Alpha  occ. eigenvalues --   -0.48902  -0.48083  -0.48035  -0.47922  -0.47626
 Alpha  occ. eigenvalues --   -0.47396  -0.47297  -0.47253  -0.47012  -0.46970
 Alpha  occ. eigenvalues --   -0.46872  -0.46580  -0.46571  -0.46500  -0.46206
 Alpha  occ. eigenvalues --   -0.46155  -0.46113  -0.45619  -0.45111  -0.44932
 Alpha  occ. eigenvalues --   -0.44894  -0.44209  -0.44154  -0.44041  -0.43498
 Alpha  occ. eigenvalues --   -0.43311  -0.43264  -0.43137  -0.43126  -0.43091
 Alpha  occ. eigenvalues --   -0.42746  -0.42723  -0.42687  -0.42612  -0.42600
 Alpha  occ. eigenvalues --   -0.42524  -0.42489  -0.42475  -0.42308  -0.42296
 Alpha  occ. eigenvalues --   -0.42274  -0.42044  -0.41921  -0.41876  -0.41861
 Alpha  occ. eigenvalues --   -0.41222  -0.41202  -0.41143  -0.41068  -0.40576
 Alpha  occ. eigenvalues --   -0.40560  -0.40550  -0.40364  -0.39455  -0.39445
 Alpha  occ. eigenvalues --   -0.37008  -0.32551  -0.29206  -0.25157  -0.25127
 Alpha  occ. eigenvalues --   -0.23486
 Alpha virt. eigenvalues --   -0.09381  -0.09175  -0.08423  -0.08372  -0.06958
 Alpha virt. eigenvalues --   -0.06941  -0.06864  -0.04392  -0.04111  -0.04060
 Alpha virt. eigenvalues --   -0.03728  -0.03497  -0.03443  -0.03230  -0.03106
 Alpha virt. eigenvalues --   -0.03063  -0.03041  -0.02231  -0.02181  -0.02155
 Alpha virt. eigenvalues --   -0.01499  -0.01473  -0.01419  -0.01309  -0.01233
 Alpha virt. eigenvalues --   -0.00077  -0.00051   0.00001   0.01404   0.01439
 Alpha virt. eigenvalues --    0.01888   0.01923   0.02016   0.02146   0.02172
 Alpha virt. eigenvalues --    0.02192   0.02258   0.02317   0.02777   0.02847
 Alpha virt. eigenvalues --    0.02920   0.02990   0.03025   0.04455   0.04536
 Alpha virt. eigenvalues --    0.06757   0.07250   0.07469   0.07509   0.07746
 Alpha virt. eigenvalues --    0.08012   0.08496   0.08521   0.08777   0.09145
 Alpha virt. eigenvalues --    0.09323   0.09380   0.09658   0.09867   0.10208
 Alpha virt. eigenvalues --    0.10283   0.10321   0.10367   0.10424   0.10631
 Alpha virt. eigenvalues --    0.10893   0.11044   0.11062   0.11625   0.11716
 Alpha virt. eigenvalues --    0.12208   0.13123   0.13226   0.13329   0.13605
 Alpha virt. eigenvalues --    0.13760   0.14463   0.14561   0.14672   0.14996
 Alpha virt. eigenvalues --    0.15527   0.16136   0.16334   0.16547   0.16719
 Alpha virt. eigenvalues --    0.16737   0.16910   0.17065   0.17235   0.17690
 Alpha virt. eigenvalues --    0.17901   0.18143   0.18206   0.18384   0.18566
 Alpha virt. eigenvalues --    0.18733   0.18980   0.19231   0.19357   0.19541
 Alpha virt. eigenvalues --    0.19598   0.20148   0.20277   0.20420   0.20585
 Alpha virt. eigenvalues --    0.20716   0.20861   0.20972   0.21308   0.21395
 Alpha virt. eigenvalues --    0.21484   0.21555   0.21637   0.21876   0.22036
 Alpha virt. eigenvalues --    0.22464   0.22724   0.22890   0.23160   0.23213
 Alpha virt. eigenvalues --    0.23437   0.23761   0.23955   0.24257   0.24568
 Alpha virt. eigenvalues --    0.24780   0.25212   0.25447   0.25664   0.25877
 Alpha virt. eigenvalues --    0.26003   0.26172   0.26441   0.26545   0.26723
 Alpha virt. eigenvalues --    0.26948   0.27241   0.27369   0.27423   0.27702
 Alpha virt. eigenvalues --    0.28024   0.28248   0.28305   0.28552   0.28717
 Alpha virt. eigenvalues --    0.29080   0.29563   0.29905   0.30439   0.30501
 Alpha virt. eigenvalues --    0.30730   0.30931   0.31227   0.31471   0.31795
 Alpha virt. eigenvalues --    0.32260   0.34760   0.35186   0.35790   0.36304
 Alpha virt. eigenvalues --    0.36619   0.36899   0.37248   0.38106   0.38404
 Alpha virt. eigenvalues --    0.38612   0.39141   0.39464   0.39607   0.40243
 Alpha virt. eigenvalues --    0.40685   0.40857   0.40916   0.41114   0.41702
 Alpha virt. eigenvalues --    0.42077   0.42367   0.42710   0.43268   0.43487
 Alpha virt. eigenvalues --    0.43686   0.44435   0.44697   0.44816   0.45180
 Alpha virt. eigenvalues --    0.45715   0.46289   0.46512   0.46666   0.47250
 Alpha virt. eigenvalues --    0.47380   0.47631   0.47844   0.48033   0.48181
 Alpha virt. eigenvalues --    0.48371   0.48436   0.48562   0.48658   0.48913
 Alpha virt. eigenvalues --    0.49152   0.49359   0.49410   0.49777   0.49835
 Alpha virt. eigenvalues --    0.50196   0.50314   0.50565   0.50833   0.51031
 Alpha virt. eigenvalues --    0.51636   0.51735   0.51920   0.52280   0.52422
 Alpha virt. eigenvalues --    0.52655   0.52896   0.53003   0.53154   0.53287
 Alpha virt. eigenvalues --    0.53577   0.54001   0.54204   0.54314   0.54456
 Alpha virt. eigenvalues --    0.54986   0.55429   0.55636   0.56350   0.56447
 Alpha virt. eigenvalues --    0.56792   0.57372   0.57646   0.58043   0.58289
 Alpha virt. eigenvalues --    0.58562   0.59078   0.59454   0.60200   0.60783
 Alpha virt. eigenvalues --    0.61413   0.62260   0.62626   0.62748   0.63192
 Alpha virt. eigenvalues --    0.64209   0.65273   0.65691   0.65745   0.65902
 Alpha virt. eigenvalues --    0.66152   0.66488   0.66972   0.67362   0.67440
 Alpha virt. eigenvalues --    0.67849   0.68272   0.69564   0.70205   0.71139
 Alpha virt. eigenvalues --    0.71416   0.71955   0.72154   0.72287   0.72312
 Alpha virt. eigenvalues --    0.72576   0.72760   0.73239   0.73317   0.73975
 Alpha virt. eigenvalues --    0.74597   0.74810   0.75498   0.75669   0.75848
 Alpha virt. eigenvalues --    0.76171   0.76722   0.76915   0.77182   0.77415
 Alpha virt. eigenvalues --    0.78104   0.78552   0.79088   0.79444   0.79610
 Alpha virt. eigenvalues --    0.80165   0.80434   0.80563   0.80699   0.81364
 Alpha virt. eigenvalues --    0.81514   0.81731   0.82004   0.82461   0.83206
 Alpha virt. eigenvalues --    0.83903   0.84209   0.84675   0.85457   0.86024
 Alpha virt. eigenvalues --    0.87083   0.87410   0.87951   0.88035   0.88611
 Alpha virt. eigenvalues --    0.88899   0.89020   0.89465   0.89540   0.90270
 Alpha virt. eigenvalues --    0.90559   0.90830   0.91230   0.91325   0.91672
 Alpha virt. eigenvalues --    0.92641   0.92987   0.93443   0.93854   0.94113
 Alpha virt. eigenvalues --    0.94219   0.94850   0.95645   0.95838   0.96508
 Alpha virt. eigenvalues --    0.96874   0.97070   0.97231   0.97755   0.97863
 Alpha virt. eigenvalues --    0.98168   0.98267   0.98431   0.98570   0.98776
 Alpha virt. eigenvalues --    0.98918   0.99425   0.99978   1.00181   1.00361
 Alpha virt. eigenvalues --    1.00831   1.01225   1.01480   1.01566   1.01623
 Alpha virt. eigenvalues --    1.02061   1.02196   1.02366   1.02467   1.02656
 Alpha virt. eigenvalues --    1.02884   1.03414   1.03441   1.03614   1.03955
 Alpha virt. eigenvalues --    1.04212   1.04236   1.04394   1.04677   1.04813
 Alpha virt. eigenvalues --    1.05030   1.05151   1.05259   1.05430   1.05800
 Alpha virt. eigenvalues --    1.05926   1.06365   1.06776   1.07010   1.07142
 Alpha virt. eigenvalues --    1.07502   1.07879   1.08647   1.08983   1.09174
 Alpha virt. eigenvalues --    1.09321   1.09777   1.09915   1.10048   1.10223
 Alpha virt. eigenvalues --    1.10736   1.10865   1.10935   1.10951   1.11229
 Alpha virt. eigenvalues --    1.11443   1.11644   1.11728   1.12035   1.12421
 Alpha virt. eigenvalues --    1.12718   1.13416   1.13616   1.14113   1.14812
 Alpha virt. eigenvalues --    1.15242   1.15747   1.16193   1.16236   1.16663
 Alpha virt. eigenvalues --    1.17103   1.17604   1.17876   1.18604   1.18830
 Alpha virt. eigenvalues --    1.19779   1.20533   1.20927   1.21111   1.21234
 Alpha virt. eigenvalues --    1.21413   1.21838   1.22069   1.22894   1.23585
 Alpha virt. eigenvalues --    1.25021   1.25906   1.26292   1.26525   1.26809
 Alpha virt. eigenvalues --    1.27334   1.28041   1.28395   1.28605   1.28756
 Alpha virt. eigenvalues --    1.28850   1.29011   1.29201   1.29323   1.30048
 Alpha virt. eigenvalues --    1.30082   1.30189   1.30385   1.30639   1.30752
 Alpha virt. eigenvalues --    1.31003   1.32074   1.32354   1.32865   1.33106
 Alpha virt. eigenvalues --    1.33231   1.33426   1.33663   1.33870   1.34122
 Alpha virt. eigenvalues --    1.34244   1.34338   1.34476   1.34614   1.34785
 Alpha virt. eigenvalues --    1.34947   1.35104   1.35658   1.35770   1.36081
 Alpha virt. eigenvalues --    1.36186   1.36423   1.36674   1.36792   1.36878
 Alpha virt. eigenvalues --    1.37127   1.37332   1.37629   1.37733   1.37813
 Alpha virt. eigenvalues --    1.38071   1.38385   1.38669   1.38964   1.39122
 Alpha virt. eigenvalues --    1.39328   1.39527   1.39688   1.39774   1.40221
 Alpha virt. eigenvalues --    1.40355   1.40506   1.40642   1.40709   1.40818
 Alpha virt. eigenvalues --    1.41075   1.41132   1.41423   1.41860   1.42006
 Alpha virt. eigenvalues --    1.42482   1.42888   1.43193   1.43297   1.43369
 Alpha virt. eigenvalues --    1.43718   1.44055   1.44421   1.44482   1.45602
 Alpha virt. eigenvalues --    1.46184   1.46801   1.47585   1.47639   1.47895
 Alpha virt. eigenvalues --    1.48210   1.48459   1.49219   1.49682   1.49920
 Alpha virt. eigenvalues --    1.50393   1.50955   1.51343   1.51824   1.53126
 Alpha virt. eigenvalues --    1.53512   1.55406   1.55752   1.55805   1.55904
 Alpha virt. eigenvalues --    1.56080   1.56320   1.56631   1.56663   1.57160
 Alpha virt. eigenvalues --    1.57208   1.57937   1.58346   1.59083   1.59161
 Alpha virt. eigenvalues --    1.59644   1.60104   1.60273   1.60429   1.60519
 Alpha virt. eigenvalues --    1.60639   1.61139   1.61958   1.62165   1.62530
 Alpha virt. eigenvalues --    1.64073   1.64367   1.65026   1.65633   1.66897
 Alpha virt. eigenvalues --    1.67582   1.67980   1.69751   1.70565   1.70862
 Alpha virt. eigenvalues --    1.71302   1.71649   1.72388   1.73459   1.74085
 Alpha virt. eigenvalues --    1.75107   1.75308   1.75417   1.75815   1.76547
 Alpha virt. eigenvalues --    1.76708   1.76813   1.77379   1.77658   1.78633
 Alpha virt. eigenvalues --    1.78681   1.79084   1.79411   1.80351   1.80580
 Alpha virt. eigenvalues --    1.81211   1.81316   1.82051   1.82320   1.82927
 Alpha virt. eigenvalues --    1.83025   1.83290   1.83831   1.84056   1.84474
 Alpha virt. eigenvalues --    1.85142   1.85491   1.85679   1.86019   1.86256
 Alpha virt. eigenvalues --    1.86521   1.87106   1.87410   1.88123   1.88569
 Alpha virt. eigenvalues --    1.89313   1.89915   1.90183   1.90303   1.90439
 Alpha virt. eigenvalues --    1.90846   1.91084   1.91329   1.92327   1.93429
 Alpha virt. eigenvalues --    1.94835   1.95248   1.95316   1.95531   1.96005
 Alpha virt. eigenvalues --    1.98214   1.99200   1.99421   1.99505   2.04330
 Alpha virt. eigenvalues --    2.06308   2.06872   2.08161   2.08404   2.08707
 Alpha virt. eigenvalues --    2.08834   2.09166   2.09479   2.10107   2.10851
 Alpha virt. eigenvalues --    2.11387   2.11900   2.12557   2.14737   2.15666
 Alpha virt. eigenvalues --    2.15965   2.16772   2.17229   2.17379   2.17796
 Alpha virt. eigenvalues --    2.20104   2.20483   2.20526   2.20812   2.20876
 Alpha virt. eigenvalues --    2.21165   2.22150   2.24023   2.25311   2.25820
 Alpha virt. eigenvalues --    2.26274   2.26550   2.27136   2.28289   2.28694
 Alpha virt. eigenvalues --    2.28970   2.29544   2.30065   2.33501   2.35627
 Alpha virt. eigenvalues --    2.36736   2.39617   2.40879   2.40989   2.43532
 Alpha virt. eigenvalues --    2.44278   2.50626   2.51839   2.57283   2.64774
 Alpha virt. eigenvalues --    2.64831   2.64978   2.65638   2.66037   2.66552
 Alpha virt. eigenvalues --    2.66780   2.66824   2.66918   2.66996   2.67037
 Alpha virt. eigenvalues --    2.67082   2.67146   2.67307   2.67347   2.67380
 Alpha virt. eigenvalues --    2.67641   2.67673   2.67833   2.67863   2.67918
 Alpha virt. eigenvalues --    2.68724   2.68923   2.69209   2.69360   2.70023
 Alpha virt. eigenvalues --    2.70145   2.70248   2.70526   2.70610   2.70735
 Alpha virt. eigenvalues --    2.70832   2.71346   2.71439   2.71504   2.71564
 Alpha virt. eigenvalues --    2.71645   2.71886   2.72597   2.72798   2.72937
 Alpha virt. eigenvalues --    2.73022   2.73126   2.73208   2.73310   2.73324
 Alpha virt. eigenvalues --    2.73440   2.73701   2.73833   2.73870   2.73992
 Alpha virt. eigenvalues --    2.74058   2.74150   2.74323   2.74549   2.74695
 Alpha virt. eigenvalues --    2.74761   2.74908   2.75085   2.75621   2.75985
 Alpha virt. eigenvalues --    2.76157   2.76259   2.76415   2.76708   2.76898
 Alpha virt. eigenvalues --    2.77014   2.77106   2.77143   2.78353   2.78490
 Alpha virt. eigenvalues --    2.78632   2.78817   2.79849   2.80105   2.80214
 Alpha virt. eigenvalues --    2.81043   2.81664   2.81705   2.81979   2.82205
 Alpha virt. eigenvalues --    2.82267   2.82715   2.83062   2.83286   2.83676
 Alpha virt. eigenvalues --    2.83786   2.83909   2.84011   2.84198   2.85052
 Alpha virt. eigenvalues --    2.85549   2.86109   2.86223   2.86326   2.86454
 Alpha virt. eigenvalues --    2.86577   2.86724   2.86844   2.88009   2.88368
 Alpha virt. eigenvalues --    2.88601   2.88888   2.89594   2.89640   2.89753
 Alpha virt. eigenvalues --    2.89904   2.89916   2.90043   2.90427   2.90488
 Alpha virt. eigenvalues --    2.90592   2.91671   2.91830   2.91948   2.92013
 Alpha virt. eigenvalues --    2.92260   2.92443   2.92727   2.92950   2.93074
 Alpha virt. eigenvalues --    2.93297   2.93525   2.93644   2.93960   2.94113
 Alpha virt. eigenvalues --    2.94148   2.95042   2.95231   2.95423   2.95716
 Alpha virt. eigenvalues --    2.95814   2.95893   2.96403   2.96578   2.96693
 Alpha virt. eigenvalues --    2.96742   2.96917   2.96959   2.97166   2.97436
 Alpha virt. eigenvalues --    2.97569   2.97705   2.97891   2.98346   2.99100
 Alpha virt. eigenvalues --    2.99328   2.99488   2.99713   2.99811   3.00040
 Alpha virt. eigenvalues --    3.00200   3.00475   3.01141   3.01415   3.01586
 Alpha virt. eigenvalues --    3.02778   3.03256   3.03409   3.03781   3.04902
 Alpha virt. eigenvalues --    3.06313   3.06506   3.06937   3.11064   3.11424
 Alpha virt. eigenvalues --    3.11527   3.11621   3.12127   3.12516   3.13649
 Alpha virt. eigenvalues --    3.13770   3.13914   3.16903   3.19890   3.21622
 Alpha virt. eigenvalues --    3.21846   3.23895   3.32548   3.40801   3.41189
 Alpha virt. eigenvalues --    3.41798   3.42727   3.44471   3.44562   3.45505
 Alpha virt. eigenvalues --    3.45935   3.46032   3.46961   3.47129   3.47559
 Alpha virt. eigenvalues --    3.48522   3.50990   3.51594   3.51987   3.53328
 Alpha virt. eigenvalues --    3.53580   3.54112   3.54496   3.54819   3.54932
 Alpha virt. eigenvalues --    3.55097   3.55238   3.55278   3.56281   3.57344
 Alpha virt. eigenvalues --    3.57547   3.58142   3.59294   3.59487   3.60095
 Alpha virt. eigenvalues --    3.60502   3.61115   3.61467   3.61839   3.62272
 Alpha virt. eigenvalues --    3.69642   3.74828  68.64455  68.65507  68.66577
 Alpha virt. eigenvalues --   68.68698  68.72650  68.73745  68.81605  68.82591
 Alpha virt. eigenvalues --   68.83199  68.85723  68.86893  68.88053 576.22886
 Alpha virt. eigenvalues --  576.23914 576.24963 576.27035 576.30997 576.32079
 Alpha virt. eigenvalues --  576.39789 576.40752 576.41344 576.43773 576.44914
 Alpha virt. eigenvalues --  576.46066
          Condensed to atoms (all electrons):
 Mulliken charges:
               1
     1  Cl  -0.892539
     2  C   -0.082202
     3  C    0.049487
     4  C   -0.081195
     5  C   -0.034020
     6  C   -0.033377
     7  C   -0.049214
     8  H    0.029389
     9  H    0.029003
    10  H    0.040865
    11  H    0.036801
    12  H    0.039400
    13  C   -0.127131
    14  C    0.031400
    15  H    0.019870
    16  H    0.035021
    17  H    0.026128
    18  O   -0.662863
    19  O   -0.661399
    20  O   -0.655048
    21  O   -0.663395
    22  W    1.731678
    23  W    1.673542
    24  W    1.684035
    25  W    1.694654
    26  W    1.675527
    27  W    1.726680
    28  W    1.616763
    29  W    1.685264
    30  O   -0.320237
    31  O   -0.365739
    32  O   -0.367243
    33  O   -0.358740
    34  O   -0.662699
    35  O   -0.670316
    36  O   -0.660601
    37  O   -0.662959
    38  O   -0.367377
    39  O   -0.365144
    40  O   -0.298150
    41  O   -0.364741
    42  O   -0.669723
    43  O   -0.663383
    44  O   -0.658902
    45  O   -0.665648
    46  O   -0.367244
    47  O   -0.320292
    48  O   -0.360396
    49  O   -0.362759
    50  W    1.671599
    51  W    1.678021
    52  W    1.683368
    53  W    1.684219
    54  O   -0.725156
    55  O   -0.706894
    56  O   -0.725131
    57  O   -0.723109
    58  O   -0.704565
    59  O   -0.725747
    60  O   -0.725113
    61  O   -0.719850
    62  O   -0.724476
    63  O   -0.706344
    64  O   -0.725622
    65  O   -0.725709
    66  O   -0.801357
    67  O   -0.800566
    68  O   -0.797986
    69  O   -0.808788
    70  K    0.864364
    71  K    0.861984
    72  K    0.861388
    73  V    1.190640
 Sum of Mulliken charges =  -1.00000
 Mulliken charges with hydrogens summed into heavy atoms:
               1
     1  Cl  -0.892539
     2  C   -0.052813
     3  C    0.049487
     4  C   -0.052192
     5  C    0.006845
     6  C    0.003424
     7  C   -0.009814
    13  C   -0.107261
    14  C    0.092549
    18  O   -0.662863
    19  O   -0.661399
    20  O   -0.655048
    21  O   -0.663395
    22  W    1.731678
    23  W    1.673542
    24  W    1.684035
    25  W    1.694654
    26  W    1.675527
    27  W    1.726680
    28  W    1.616763
    29  W    1.685264
    30  O   -0.320237
    31  O   -0.365739
    32  O   -0.367243
    33  O   -0.358740
    34  O   -0.662699
    35  O   -0.670316
    36  O   -0.660601
    37  O   -0.662959
    38  O   -0.367377
    39  O   -0.365144
    40  O   -0.298150
    41  O   -0.364741
    42  O   -0.669723
    43  O   -0.663383
    44  O   -0.658902
    45  O   -0.665648
    46  O   -0.367244
    47  O   -0.320292
    48  O   -0.360396
    49  O   -0.362759
    50  W    1.671599
    51  W    1.678021
    52  W    1.683368
    53  W    1.684219
    54  O   -0.725156
    55  O   -0.706894
    56  O   -0.725131
    57  O   -0.723109
    58  O   -0.704565
    59  O   -0.725747
    60  O   -0.725113
    61  O   -0.719850
    62  O   -0.724476
    63  O   -0.706344
    64  O   -0.725622
    65  O   -0.725709
    66  O   -0.801357
    67  O   -0.800566
    68  O   -0.797986
    69  O   -0.808788
    70  K    0.864364
    71  K    0.861984
    72  K    0.861388
    73  V    1.190640
 Electronic spatial extent (au):  <R**2>=         317279.2068
 Charge=             -1.0000 electrons
 Dipole moment (field-independent basis, Debye):
    X=             50.0943    Y=            -51.1843    Z=            -38.9235  Tot=             81.5127
 Quadrupole moment (field-independent basis, Debye-Ang):
   XX=          -1040.4968   YY=           -887.6036   ZZ=           -919.4468
   XY=            446.1737   XZ=            448.6735   YZ=           -477.0847
 Traceless Quadrupole moment (field-independent basis, Debye-Ang):
   XX=            -91.3144   YY=             61.5788   ZZ=             29.7356
   XY=            446.1737   XZ=            448.6735   YZ=           -477.0847
 Octapole moment (field-independent basis, Debye-Ang**2):
  XXX=          13189.4806  YYY=          -1069.7213  ZZZ=         -19229.3177  XYY=           6034.1715
  XXY=          -3527.9756  XXZ=          -9277.9223  XZZ=           7241.1119  YZZ=          -4159.2084
  YYZ=          -9032.8995  XYZ=           4711.8260
 Hexadecapole moment (field-independent basis, Debye-Ang**3):
 XXXX=        -155683.1186 YYYY=         -54098.1260 ZZZZ=        -347677.8576 XXXY=          35332.9998
 XXXZ=         120317.0908 YYYX=          20626.9241 YYYZ=         -12773.5036 ZZZX=         126604.9154
 ZZZY=         -35404.3898 XXYY=         -55073.8860 XXZZ=        -106323.4093 YYZZ=         -99772.9039
 XXYZ=         -40949.8229 YYXZ=          61155.4824 ZZXY=          49451.6239
 N-N= 2.096816464073D+04 E-N=-5.902068785886D+04  KE= 6.765172453230D+03
   1 Symmetry operations used in ECPInt.
 ECPInt:  NShTT=  127765 NPrTT=  468030 LenC2=   96477 LenP2D=  220758.
 LDataN:  DoStor=T MaxTD1= 9 Len=  602
 D1PCM: PCM CHGder 1st derivatives, ID1Alg=3 FixD1E=F DoIter=F DoCFld=F I1PDM=0.
 Calling FoFJK, ICntrl=      2127 FMM=T ISym2X=0 I1Cent= 0 IOpClX= 0 NMat=1 NMatS=1 NMatT=0.
 Defaulting to unpruned grid for atomic number  74.
 Defaulting to unpruned grid for atomic number  74.
 Defaulting to unpruned grid for atomic number  74.
 Defaulting to unpruned grid for atomic number  74.
 Defaulting to unpruned grid for atomic number  74.
 Defaulting to unpruned grid for atomic number  74.
 Defaulting to unpruned grid for atomic number  74.
 Defaulting to unpruned grid for atomic number  74.
 Defaulting to unpruned grid for atomic number  74.
 Defaulting to unpruned grid for atomic number  74.
 Defaulting to unpruned grid for atomic number  74.
 Defaulting to unpruned grid for atomic number  74.
 Defaulting to unpruned grid for atomic number  74.
 Defaulting to unpruned grid for atomic number  74.
 Defaulting to unpruned grid for atomic number  74.
 Defaulting to unpruned grid for atomic number  74.
 Defaulting to unpruned grid for atomic number  74.
 Defaulting to unpruned grid for atomic number  74.
 Defaulting to unpruned grid for atomic number  74.
 Defaulting to unpruned grid for atomic number  74.
 Defaulting to unpruned grid for atomic number  74.
 Defaulting to unpruned grid for atomic number  74.
 Defaulting to unpruned grid for atomic number  74.
 Defaulting to unpruned grid for atomic number  74.
 Defaulting to unpruned grid for atomic number  74.
 Defaulting to unpruned grid for atomic number  74.
 Defaulting to unpruned grid for atomic number  74.
 Defaulting to unpruned grid for atomic number  74.
 Defaulting to unpruned grid for atomic number  74.
 Defaulting to unpruned grid for atomic number  74.
 Defaulting to unpruned grid for atomic number  74.
 Defaulting to unpruned grid for atomic number  74.
 Defaulting to unpruned grid for atomic number  74.
 Defaulting to unpruned grid for atomic number  74.
 Defaulting to unpruned grid for atomic number  74.
 Defaulting to unpruned grid for atomic number  74.
 Defaulting to unpruned grid for atomic number  74.
 Defaulting to unpruned grid for atomic number  74.
 Defaulting to unpruned grid for atomic number  74.
 Defaulting to unpruned grid for atomic number  74.
 Defaulting to unpruned grid for atomic number  74.
 Defaulting to unpruned grid for atomic number  74.
 Defaulting to unpruned grid for atomic number  74.
 Defaulting to unpruned grid for atomic number  74.
 Defaulting to unpruned grid for atomic number  74.
 Defaulting to unpruned grid for atomic number  74.
 Defaulting to unpruned grid for atomic number  74.
 Defaulting to unpruned grid for atomic number  74.
 Defaulting to unpruned grid for atomic number  74.
 Defaulting to unpruned grid for atomic number  74.
 Defaulting to unpruned grid for atomic number  74.
 Defaulting to unpruned grid for atomic number  74.
 Defaulting to unpruned grid for atomic number  74.
 Defaulting to unpruned grid for atomic number  74.
 Defaulting to unpruned grid for atomic number  74.
 Defaulting to unpruned grid for atomic number  74.
 -------------------------------------------------------------------
 Center     Atomic                   Forces (Hartrees/Bohr)
 Number     Number              X              Y              Z
 -------------------------------------------------------------------
      1       17          -0.003132563    0.008302692    0.002622945
      2        6          -0.001464694   -0.000719297   -0.001674547
      3        6          -0.000989061   -0.001721555    0.003543405
      4        6           0.001421026    0.001914816    0.000566918
      5        6           0.000872327   -0.000117543    0.001360051
      6        6          -0.000349594   -0.000156625    0.000929814
      7        6          -0.000972147   -0.001372219    0.000536761
      8        1           0.000067779   -0.000034375   -0.000276762
      9        1          -0.000065366   -0.000175116   -0.000065714
     10        1           0.000268579   -0.000683778   -0.000027978
     11        1          -0.000302087    0.000087685    0.000238616
     12        1           0.000425361   -0.000427333    0.000137830
     13        6           0.007570028    0.010742339   -0.007115066
     14        6          -0.001924369   -0.016905169   -0.000519242
     15        1          -0.001275124    0.000844442    0.000406343
     16        1           0.000324804    0.000000525    0.000032402
     17        1          -0.001722877    0.001494253   -0.000803672
     18        8          -0.003121494    0.000503382    0.000828313
     19        8           0.003009426   -0.000778595    0.000865273
     20        8           0.002463476   -0.002812379   -0.000577193
     21        8          -0.002188918    0.002096427   -0.000907855
     22       74           0.001560168    0.009827813   -0.009445213
     23       74          -0.002384746   -0.009519152   -0.009485296
     24       74           0.006320164    0.008007813    0.009671656
     25       74          -0.006673173   -0.006865209    0.009618450
     26       74           0.007899694   -0.007407992   -0.010273434
     27       74          -0.007978645    0.007814447   -0.009948228
     28       74          -0.011226328    0.003017939    0.010313717
     29       74           0.010526979   -0.001830374    0.010189048
     30        8          -0.000588836   -0.003052334    0.002865663
     31        8           0.000189354    0.003024278    0.003104453
     32        8          -0.002245581   -0.002015916   -0.003106671
     33        8           0.002236911    0.001905455   -0.003212674
     34        8          -0.000870624   -0.000714660    0.003140387
     35        8           0.001368867    0.000195485    0.003257529
     36        8           0.000537346   -0.001354412   -0.003030968
     37        8          -0.000241774    0.001122444   -0.003206022
     38        8          -0.004439745   -0.001765360   -0.001270464
     39        8           0.004201307    0.001765779   -0.001130861
     40        8           0.002174316   -0.005860863    0.000952831
     41        8          -0.000983627    0.004482125    0.001129636
     42        8          -0.001990963   -0.002538103    0.001388617
     43        8           0.002246898    0.002459919    0.001021338
     44        8          -0.000422629   -0.003490683   -0.000602399
     45        8           0.000937748    0.003150987   -0.001275186
     46        8          -0.002546051    0.002489781    0.003142619
     47        8           0.002641324   -0.001984301    0.003278086
     48        8           0.003839922   -0.000872572   -0.003553249
     49        8          -0.003305750    0.000410374   -0.003342423
     50       74           0.013771273    0.004714537    0.002815723
     51       74          -0.014079080   -0.003722050    0.003186951
     52       74          -0.005368933    0.015305292   -0.003144588
     53       74           0.004545089   -0.013722072   -0.002642014
     54        8          -0.000544767    0.001528625    0.002126687
     55        8           0.000716606   -0.001608402    0.001984341
     56        8           0.001799393   -0.000105900   -0.002344548
     57        8          -0.001491749   -0.000587805   -0.001853101
     58        8           0.000179991   -0.002411298    0.001050839
     59        8           0.000503662    0.002345875    0.001466058
     60        8          -0.001675917   -0.001775491   -0.001494704
     61        8           0.001651505    0.001411611   -0.001527495
     62        8          -0.001000215    0.002019893    0.000856764
     63        8           0.001008240   -0.002429732    0.000523303
     64        8           0.002243844   -0.000066508   -0.001137925
     65        8          -0.002542038   -0.000307753   -0.000898569
     66        8          -0.025700223   -0.004739578    0.016242554
     67        8           0.025977710    0.005578205    0.016298178
     68        8           0.010778561   -0.024740598   -0.016366247
     69        8          -0.010522649    0.023653670   -0.016683919
     70       19           0.000249328   -0.000890805   -0.000637069
     71       19           0.001226093    0.000193073    0.001016958
     72       19          -0.000987372   -0.000349375    0.000602320
     73       23          -0.000435386    0.000221298    0.000267921
 -------------------------------------------------------------------
 Cartesian Forces:  Max     0.025977710 RMS     0.005894903

 GradGradGradGradGradGradGradGradGradGradGradGradGradGradGradGradGradGrad
 Berny optimization.
 Search for a local minimum.
 Step number   1 out of a maximum of    2
 All quantities printed in internal units (Hartrees-Bohrs-Radians)
 Second derivative matrix not updated -- first step.
 ITU=  0
     Eigenvalues ---   -0.00000   0.00000   0.00000   0.00010   0.00093
     Eigenvalues ---    0.00095   0.00256   0.00548   0.00634   0.01644
     Eigenvalues ---    0.01946   0.02901   0.02926   0.03200   0.03416
     Eigenvalues ---    0.03439   0.03717   0.03725   0.04158   0.04496
     Eigenvalues ---    0.04596   0.04607   0.04615   0.04832   0.04846
     Eigenvalues ---    0.04996   0.05344   0.05553   0.05574   0.06357
     Eigenvalues ---    0.06397   0.06534   0.06783   0.06864   0.07048
     Eigenvalues ---    0.07306   0.07366   0.07610   0.08340   0.08375
     Eigenvalues ---    0.08707   0.08728   0.08894   0.08934   0.09745
     Eigenvalues ---    0.09909   0.10070   0.10399   0.10447   0.10532
     Eigenvalues ---    0.10790   0.10890   0.11530   0.11599   0.12025
     Eigenvalues ---    0.12064   0.12133   0.12529   0.12553   0.12621
     Eigenvalues ---    0.12702   0.12720   0.12842   0.13057   0.13089
     Eigenvalues ---    0.13821   0.13942   0.14270   0.14459   0.14713
     Eigenvalues ---    0.16792   0.16829   0.17014   0.17161   0.17583
     Eigenvalues ---    0.17672   0.18546   0.19782   0.19931   0.20200
     Eigenvalues ---    0.20819   0.21100   0.21865   0.21931   0.22040
     Eigenvalues ---    0.22500   0.23120   0.23343   0.23873   0.23904
     Eigenvalues ---    0.24572   0.24688   0.24874   0.25625   0.25943
     Eigenvalues ---    0.26222   0.26369   0.27565   0.27638   0.27843
     Eigenvalues ---    0.28310   0.28392   0.28866   0.29591   0.29983
     Eigenvalues ---    0.30552   0.30642   0.30736   0.30773   0.30857
     Eigenvalues ---    0.30984   0.31215   0.31377   0.31589   0.32415
     Eigenvalues ---    0.32601   0.32628   0.32669   0.32916   0.33513
     Eigenvalues ---    0.33586   0.35022   0.35504   0.35798   0.36800
     Eigenvalues ---    0.37465   0.37640   0.37686   0.38201   0.38495
     Eigenvalues ---    0.38770   0.39258   0.40216   0.40242   0.41247
     Eigenvalues ---    0.42260   0.42302   0.43595   0.43962   0.44829
     Eigenvalues ---    0.45391   0.45607   0.45882   0.47523   0.48288
     Eigenvalues ---    0.48475   0.48853   0.48932   0.49645   0.49828
     Eigenvalues ---    0.49963   0.50730   0.51407   0.51659   0.52174
     Eigenvalues ---    0.53042   0.53569   0.55206   0.58797   0.64437
     Eigenvalues ---    0.67522   0.76652   0.81522   0.82739   0.96960
     Eigenvalues ---    0.97276   0.98789   0.99283   1.01980   1.04485
     Eigenvalues ---    1.07263   1.11432   1.11946   1.12331   1.15868
     Eigenvalues ---    1.19187   1.19630   1.20550   1.22393   1.22802
     Eigenvalues ---    1.23036   1.26456   1.26728   1.26872   1.27199
     Eigenvalues ---    1.27570   1.29065   1.29287   1.45059   1.45528
     Eigenvalues ---    1.45602   1.47928   1.51529   1.51679   1.52017
     Eigenvalues ---    1.52655   1.55667   1.55677   1.56902   1.58387
     Eigenvalues ---    1.58571   1.59458   1.61653   1.64380   1.70611
     Eigenvalues ---    1.81671   1.84530   1.86963   1.87769   1.88255
     Eigenvalues ---    1.96270   2.01320   2.85400
 Eigenvalue     1 is  -2.22D-16 should be greater than     0.000000 Eigenvector:
                          Y10       Y11       Y5        Y6        Y9
   1                    0.17435   0.17435   0.17435   0.17435   0.17435
                          Y4        Y7        Y12       Y3        Y2
   1                    0.17435   0.17435   0.17435   0.17435   0.17435
 Eigenvalue     2 is   2.45D-07 Eigenvector:
                          Y16       X16       X11       Y11       Y15
   1                    0.31420  -0.27057   0.26650  -0.24332   0.23812
                          Y14       Z11       X14       X12       Y13
   1                    0.22905  -0.19171  -0.18975   0.18715   0.18626
 Eigenvalue     3 is   2.43D-06 Eigenvector:
                          X9        X10       Y12       Y8        X12
   1                    0.33334   0.29665   0.26442   0.24699  -0.24627
                          Y9        Y10       X15       X8        X17
   1                   -0.24445  -0.22753   0.22188  -0.21211  -0.20740
 Quadratic step=2.990D+01 exceeds max=3.000D-01 adjusted using Lamda=-1.262D-02.
 Angle between NR and scaled steps=  37.39 degrees.
 Angle between quadratic step and forces=  66.41 degrees.
 Linear search not attempted -- first point.
 B after Tr=    -0.000609    0.007607    0.001568
         Rot=    1.000000   -0.000154    0.000009    0.000059 Ang=  -0.02 deg.
 Variable       Old X    -DE/DX   Delta X   Delta X   Delta X     New X
                                 (Linear)    (Quad)   (Total)
    X1      -18.25206  -0.00313   0.00000  -0.00306  -0.00218 -18.25424
    Y1       15.62802   0.00830   0.00000   0.00833   0.01195  15.63996
    Z1       19.90867   0.00262   0.00000   0.00274   0.00880  19.91747
    X2      -15.81934  -0.00146   0.00000  -0.00504  -0.00510 -15.82444
    Y2        8.07962  -0.00072   0.00000  -0.01705  -0.01468   8.06494
    Z2       23.06138  -0.00167   0.00000  -0.00386  -0.00009  23.06129
    X3      -17.32926  -0.00099   0.00000   0.00028   0.00018 -17.32908
    Y3        7.46212  -0.00172   0.00000  -0.02119  -0.01800   7.44412
    Z3       20.95990   0.00354   0.00000  -0.00341   0.00015  20.96005
    X4      -19.05259   0.00142   0.00000  -0.00504  -0.00538 -19.05797
    Y4        5.45166   0.00191   0.00000  -0.00880  -0.00549   5.44617
    Z4       21.20270   0.00057   0.00000   0.01612   0.01903  21.22173
    X5      -19.29138   0.00087   0.00000  -0.00344  -0.00397 -19.29535
    Y5        4.13606  -0.00012   0.00000  -0.00593  -0.00329   4.13277
    Z5       23.46638   0.00136   0.00000   0.02071   0.02321  23.48960
    X6      -17.78736  -0.00035   0.00000  -0.01014  -0.01063 -17.79799
    Y6        4.77938  -0.00016   0.00000  -0.00076   0.00107   4.78045
    Z6       25.53540   0.00093   0.00000   0.02164   0.02437  25.55977
    X7      -16.04702  -0.00097   0.00000  -0.00683  -0.00709 -16.05411
    Y7        6.75195  -0.00137   0.00000  -0.00747  -0.00577   6.74618
    Z7       25.31866   0.00054   0.00000   0.00605   0.00942  25.32807
    X8      -14.45378   0.00007   0.00000   0.00226   0.00238 -14.45140
    Y8        9.62231  -0.00003   0.00000  -0.02325  -0.02100   9.60131
    Z8       22.93870  -0.00028   0.00000  -0.01256  -0.00829  22.93041
    X9      -20.23835  -0.00007   0.00000  -0.00304  -0.00340 -20.24175
    Y9        4.94720  -0.00018   0.00000  -0.01707  -0.01312   4.93408
    Z9       19.58672  -0.00007   0.00000   0.01650   0.01924  19.60596
   X10      -20.66552   0.00027   0.00000   0.00470   0.00399 -20.66153
   Y10        2.60278  -0.00068   0.00000  -0.01428  -0.01153   2.59125
   Z10       23.62179  -0.00003   0.00000   0.01777   0.01978  23.64157
   X11      -17.95380  -0.00030   0.00000  -0.01266  -0.01330 -17.96710
   Y11        3.73454   0.00009   0.00000   0.00625   0.00756   3.74210
   Z11       27.30710   0.00024   0.00000   0.02534   0.02775  27.33485
   X12      -14.86828   0.00043   0.00000   0.00353   0.00331 -14.86497
   Y12        7.27365  -0.00043   0.00000  -0.00908  -0.00801   7.26564
   Z12       26.93230   0.00014   0.00000   0.00001   0.00356  26.93586
   X13      -17.23722   0.00757   0.00000   0.03404   0.03414 -17.20307
   Y13        8.87599   0.01074   0.00000  -0.05971  -0.05580   8.82020
   Z13       18.58444  -0.00712   0.00000  -0.03941  -0.03543  18.54901
   X14      -15.94256  -0.00192   0.00000   0.06762   0.06798 -15.87458
   Y14       11.03702  -0.01691   0.00000  -0.11300  -0.10910  10.92792
   Z14       18.19005  -0.00052   0.00000  -0.07166  -0.06701  18.12304
   X15      -18.38756  -0.00128   0.00000  -0.00815  -0.00811 -18.39567
   Y15        8.10265   0.00084   0.00000  -0.03853  -0.03400   8.06865
   Z15       17.04542   0.00041   0.00000  -0.01717  -0.01344  17.03198
   X16      -16.00441   0.00032   0.00000   0.06573   0.06623 -15.93818
   Y16       11.99234   0.00000   0.00000  -0.11565  -0.11119  11.88115
   Z16       16.36582   0.00003   0.00000  -0.07248  -0.06753  16.29828
   X17      -14.69223  -0.00172   0.00000   0.02748   0.02791 -14.66432
   Y17       11.84897   0.00149   0.00000  -0.06344  -0.06012  11.78885
   Z17       19.61100  -0.00080   0.00000  -0.06589  -0.06095  19.55004
   X18       -1.84326  -0.00312   0.00000  -0.01772  -0.01897  -1.86223
   Y18       -3.43167   0.00050   0.00000   0.00277   0.00626  -3.42541
   Z18       14.09331   0.00083   0.00000   0.00823   0.00871  14.10202
   X19      -15.83137   0.00301   0.00000   0.01154   0.01039 -15.82097
   Y19       -2.50561  -0.00078   0.00000   0.00930   0.01442  -2.49120
   Z19       14.10099   0.00087   0.00000   0.01098   0.01151  14.11250
   X20      -13.24729   0.00246   0.00000   0.00955   0.00889 -13.23840
   Y20        2.52767  -0.00281   0.00000  -0.00962  -0.00656   2.52111
   Z20       19.81046  -0.00058   0.00000  -0.00298  -0.00087  19.80959
   X21       -4.40589  -0.00219   0.00000  -0.00868  -0.01061  -4.41649
   Y21       -8.31056   0.00210   0.00000   0.01542   0.01742  -8.29314
   Z21       19.94610  -0.00091   0.00000  -0.01063  -0.01169  19.93441
   X22       -6.39467   0.00156   0.00000  -0.00793  -0.00859  -6.40326
   Y22        1.33615   0.00983   0.00000   0.01698   0.02156   1.35771
   Z22       12.27780  -0.00945   0.00000  -0.00655  -0.00467  12.27312
   X23      -11.32360  -0.00238   0.00000   0.00353   0.00186 -11.32173
   Y23       -7.25220  -0.00952   0.00000  -0.00161   0.00350  -7.24870
   Z23       12.40945  -0.00949   0.00000  -0.00419  -0.00504  12.40440
   X24       -6.78623   0.00632   0.00000   0.01344   0.01265  -6.77358
   Y24        1.65675   0.00801   0.00000   0.00129   0.00306   1.65981
   Z24       21.54645   0.00967   0.00000   0.01025   0.01221  21.55866
   X25      -10.89918  -0.00667   0.00000  -0.01461  -0.01645 -10.91562
   Y25       -7.33922  -0.00687   0.00000   0.00409   0.00631  -7.33291
   Z25       21.68444   0.00962   0.00000   0.00418   0.00331  21.68775
   X26       -4.61210   0.00790   0.00000  -0.00409  -0.00547  -4.61758
   Y26       -4.89027  -0.00741   0.00000  -0.00621  -0.00177  -4.89204
   Z26       12.06572  -0.01027   0.00000  -0.00642  -0.00644  12.05928
   X27      -13.06500  -0.00798   0.00000  -0.00362  -0.00456 -13.06955
   Y27       -1.02554   0.00781   0.00000   0.02175   0.02719  -0.99835
   Z27       12.00846  -0.00995   0.00000  -0.00461  -0.00358  12.00488
   X28      -12.83746  -0.01123   0.00000  -0.00901  -0.01005 -12.84751
   Y28       -0.49472   0.00302   0.00000  -0.00366  -0.00128  -0.49600
   Z28       21.88386   0.01031   0.00000   0.00908   0.01027  21.89413
   X29       -4.82281   0.01053   0.00000   0.00865   0.00706  -4.81575
   Y29       -5.18439  -0.00183   0.00000   0.00886   0.01028  -5.17411
   Z29       21.95189   0.01019   0.00000   0.00572   0.00561  21.95750
   X30       -5.94205  -0.00059   0.00000   0.00800   0.00764  -5.93441
   Y30        3.58909  -0.00305   0.00000   0.00493   0.01013   3.59922
   Z30       10.06605   0.00287   0.00000  -0.00423  -0.00166  10.06439
   X31      -11.58549   0.00019   0.00000  -0.01023  -0.01214 -11.59763
   Y31       -9.61285   0.00302   0.00000   0.00537   0.01119  -9.60166
   Z31       10.24968   0.00310   0.00000   0.00106  -0.00053  10.24915
   X32       -5.03511  -0.00225   0.00000   0.00167   0.00104  -5.03407
   Y32        3.24293  -0.00202   0.00000   0.00606   0.00696   3.24988
   Z32       23.72200  -0.00311   0.00000   0.00500   0.00748  23.72948
   X33      -12.62647   0.00224   0.00000  -0.00265  -0.00471 -12.63117
   Y33       -8.86743   0.00191   0.00000  -0.00279  -0.00106  -8.86848
   Z33       23.91514  -0.00321   0.00000  -0.00220  -0.00358  23.91156
   X34       -5.02977  -0.00087   0.00000  -0.01101  -0.01201  -5.04177
   Y34       -1.72316  -0.00071   0.00000   0.00127   0.00621  -1.71694
   Z34       10.55916   0.00314   0.00000   0.01155   0.01250  10.57166
   X35      -12.64905   0.00137   0.00000   0.00743   0.00613 -12.64291
   Y35       -4.30268   0.00020   0.00000   0.01274   0.01855  -4.28412
   Z35       10.62176   0.00326   0.00000   0.01371   0.01374  10.63550
   X36       -9.98465   0.00054   0.00000   0.00444   0.00355  -9.98110
   Y36        1.02545  -0.00135   0.00000  -0.01064  -0.00904   1.01641
   Z36       23.35596  -0.00303   0.00000  -0.00571  -0.00400  23.35196
   X37       -7.66009  -0.00024   0.00000  -0.00390  -0.00569  -7.66578
   Y37       -6.69409   0.00112   0.00000   0.01206   0.01336  -6.68074
   Z37       23.44951  -0.00321   0.00000  -0.01183  -0.01245  23.43706
   X38        0.63233  -0.00444   0.00000   0.00213   0.00121   0.63354
   Y38       -0.10120  -0.00177   0.00000  -0.00271  -0.00057  -0.10177
   Z38       17.52118  -0.00127   0.00000  -0.00242  -0.00088  17.52030
   X39      -18.31652   0.00420   0.00000  -0.00720  -0.00878 -18.32530
   Y39       -5.71347   0.00177   0.00000   0.01359   0.01793  -5.69555
   Z39       17.60912  -0.00113   0.00000  -0.00056  -0.00106  17.60806
   X40      -12.02355   0.00217   0.00000   0.00550   0.00537 -12.01818
   Y40        6.45985  -0.00586   0.00000   0.00754   0.01151   6.47135
   Z40       16.38633   0.00095   0.00000   0.00998   0.01333  16.39966
   X41       -5.65752  -0.00098   0.00000   0.00316   0.00083  -5.65669
   Y41      -12.27464   0.00448   0.00000   0.00494   0.00812 -12.26652
   Z41       16.52701   0.00113   0.00000   0.00022  -0.00208  16.52493
   X42       -3.33276  -0.00199   0.00000  -0.01463  -0.01532  -3.34808
   Y42        1.38910  -0.00254   0.00000  -0.00145   0.00220   1.39129
   Z42       14.13190   0.00139   0.00000   0.01111   0.01305  14.14494
   X43      -14.35699   0.00225   0.00000   0.00943   0.00772 -14.34927
   Y43       -7.33671   0.00246   0.00000   0.01459   0.01949  -7.31723
   Z43       14.26012   0.00102   0.00000   0.00976   0.00883  14.26895
   X44       -8.46827  -0.00042   0.00000   0.00426   0.00379  -8.46447
   Y44        4.14580  -0.00349   0.00000  -0.01278  -0.01024   4.13556
   Z44       19.69719  -0.00060   0.00000  -0.00076   0.00193  19.69912
   X45       -9.20018   0.00094   0.00000  -0.00491  -0.00702  -9.20720
   Y45       -9.90104   0.00315   0.00000   0.01817   0.02075  -9.88029
   Z45       19.88777  -0.00128   0.00000  -0.01106  -0.01269  19.87508
   X46       -3.04669  -0.00255   0.00000  -0.00316  -0.00471  -3.05140
   Y46       -6.65631   0.00249   0.00000   0.00624   0.01116  -6.64515
   Z46        9.88623   0.00314   0.00000  -0.00359  -0.00412   9.88210
   X47      -14.72026   0.00264   0.00000  -0.00804  -0.00876 -14.72902
   Y47        0.49692  -0.00198   0.00000   0.00863   0.01496   0.51188
   Z47        9.74619   0.00328   0.00000   0.00191   0.00338   9.74957
   X48      -15.13361   0.00384   0.00000  -0.00018  -0.00123 -15.13484
   Y48       -0.30500  -0.00087   0.00000   0.00331   0.00527  -0.29973
   Z48       24.11726  -0.00355   0.00000   0.00467   0.00589  24.12315
   X49       -2.50042  -0.00331   0.00000   0.00091  -0.00075  -2.50117
   Y49       -5.41933   0.00041   0.00000  -0.00300  -0.00253  -5.42186
   Z49       24.15622  -0.00334   0.00000   0.00071   0.00057  24.15679
   X50       -2.32066   0.01377   0.00000   0.00453   0.00351  -2.31715
   Y50       -1.06690   0.00471   0.00000   0.00639   0.00913  -1.05777
   Z50       16.70443   0.00282   0.00000   0.01139   0.01259  16.71702
   X51      -15.36403  -0.01408   0.00000  -0.00981  -0.01127 -15.37529
   Y51       -4.77020  -0.00372   0.00000   0.00560   0.00985  -4.76035
   Z51       16.76883   0.00319   0.00000   0.01267   0.01251  16.78134
   X52      -11.11508  -0.00537   0.00000  -0.00075  -0.00124 -11.11632
   Y52        3.49090   0.01531   0.00000   0.01402   0.01768   3.50857
   Z52       17.09610  -0.00314   0.00000  -0.00600  -0.00354  17.09256
   X53       -6.57672   0.00455   0.00000  -0.00082  -0.00282  -6.57954
   Y53       -9.29906  -0.01372   0.00000  -0.00203   0.00103  -9.29803
   Z53       17.31076  -0.00264   0.00000  -0.01212  -0.01353  17.29723
   X54       -7.96837  -0.00054   0.00000  -0.00153  -0.00303  -7.97140
   Y54       -5.89940   0.00153   0.00000  -0.00312   0.00189  -5.89751
   Z54       11.46703   0.00213   0.00000  -0.00638  -0.00677  11.46026
   X55       -9.70470   0.00072   0.00000  -0.00497  -0.00578  -9.71049
   Y55       -0.10708  -0.00161   0.00000   0.01848   0.02373  -0.08336
   Z55       11.37223   0.00198   0.00000  -0.00593  -0.00455  11.36768
   X56      -11.65155   0.00180   0.00000  -0.01014  -0.01158 -11.66314
   Y56       -3.80478  -0.00011   0.00000  -0.00164   0.00040  -3.80438
   Z56       22.52810  -0.00234   0.00000   0.00655   0.00675  22.53485
   X57       -5.97375  -0.00149   0.00000   0.01030   0.00909  -5.96467
   Y57       -1.87672  -0.00059   0.00000   0.00514   0.00652  -1.87020
   Z57       22.51634  -0.00185   0.00000   0.01004   0.01093  22.52727
   X58       -8.20677   0.00018   0.00000  -0.00440  -0.00491  -8.21168
   Y58        2.98719  -0.00241   0.00000   0.01483   0.01884   3.00603
   Z58       14.82300   0.00105   0.00000  -0.00628  -0.00393  14.81907
   X59       -9.46176   0.00050   0.00000   0.00221   0.00030  -9.46146
   Y59       -8.87861   0.00235   0.00000  -0.00210   0.00201  -8.87660
   Z59       14.97041   0.00147   0.00000  -0.00659  -0.00791  14.96249
   X60       -4.34269  -0.00168   0.00000   0.00993   0.00912  -4.33356
   Y60        1.05494  -0.00178   0.00000   0.00359   0.00584   1.06078
   Z60       19.03803  -0.00149   0.00000   0.00961   0.01142  19.04945
   X61      -13.32052   0.00165   0.00000  -0.01343  -0.01517 -13.33568
   Y61       -6.84136   0.00141   0.00000   0.00446   0.00774  -6.83362
   Z61       19.14861  -0.00153   0.00000   0.00616   0.00540  19.15401
   X62       -4.86138  -0.00100   0.00000  -0.00120  -0.00293  -4.86431
   Y62       -7.39707   0.00202   0.00000  -0.00229   0.00132  -7.39575
   Z62       14.85176   0.00086   0.00000  -0.00898  -0.00977  14.84199
   X63      -12.84900   0.00101   0.00000  -0.00247  -0.00315 -12.85216
   Y63        1.49031  -0.00243   0.00000   0.01553   0.02011   1.51042
   Z63       14.74117   0.00052   0.00000  -0.00529  -0.00348  14.73769
   X64      -14.76571   0.00224   0.00000  -0.00865  -0.00985 -14.77555
   Y64       -2.23039  -0.00007   0.00000   0.00294   0.00637  -2.22402
   Z64       19.18527  -0.00114   0.00000   0.01002   0.01065  19.19592
   X65       -2.91238  -0.00254   0.00000   0.00493   0.00358  -2.90881
   Y65       -3.56102  -0.00031   0.00000   0.00569   0.00774  -3.55328
   Z65       19.17418  -0.00090   0.00000   0.00766   0.00808  19.18226
   X66       -6.32549  -0.02570   0.00000  -0.04840  -0.04952  -6.37502
   Y66       -2.20074  -0.00474   0.00000  -0.00116   0.00253  -2.19821
   Z66       15.14544   0.01624   0.00000   0.02711   0.02789  15.17333
   X67      -11.35097   0.02598   0.00000   0.04238   0.04108 -11.30989
   Y67       -3.71766   0.00558   0.00000   0.01662   0.02087  -3.69679
   Z67       15.18272   0.01630   0.00000   0.02867   0.02891  15.21162
   X68       -9.64259   0.01078   0.00000   0.01965   0.01867  -9.62392
   Y68       -0.40724  -0.02474   0.00000  -0.03738  -0.03442  -0.44165
   Z68       18.78954  -0.01637   0.00000  -0.02483  -0.02357  18.76597
   X69       -8.00526  -0.01052   0.00000  -0.02162  -0.02318  -8.02843
   Y69       -5.39294   0.02365   0.00000   0.04477   0.04752  -5.34542
   Z69       18.85170  -0.01668   0.00000  -0.02745  -0.02766  18.82404
   X70       -6.08487   0.00025   0.00000  -0.00101  -0.00316  -6.08803
   Y70      -11.60515  -0.00089   0.00000  -0.00333   0.00171 -11.60344
   Z70       10.67442  -0.00064   0.00000  -0.00838  -0.01049  10.66393
   X71       -0.24206   0.00123   0.00000   0.01159   0.01059  -0.23148
   Y71        0.01199   0.00019   0.00000   0.00304   0.00351   0.01550
   Z71       23.27467   0.00102   0.00000   0.00959   0.01115  23.28582
   X72      -17.55159  -0.00099   0.00000  -0.01228  -0.01392 -17.56551
   Y72       -5.32696  -0.00035   0.00000   0.00223   0.00468  -5.32228
   Z72       23.45157   0.00060   0.00000   0.00792   0.00755  23.45912
   X73       -8.83497  -0.00044   0.00000  -0.00250  -0.00374  -8.83872
   Y73       -2.92260   0.00022   0.00000   0.00579   0.00921  -2.91339
   Z73       16.98846   0.00027   0.00000   0.00130   0.00182  16.99028
         Item               Value     Threshold  Converged?
 Maximum Force            0.025978     0.000450     NO 
 RMS     Force            0.005895     0.000300     NO 
 Maximum Displacement     0.111192     0.001800     NO 
 RMS     Displacement     0.020116     0.001200     NO 
 Predicted change in Energy=-5.736448D-03
 GradGradGradGradGradGradGradGradGradGradGradGradGradGradGradGradGradGrad

 Unable to Open any file for archive entry.
 1\1\GINC-X11P1N2\Force\RwB97XD\def2SVP\C8H8Cl1K3O40V1W12(1-)\MAYUMIAO\
 03-Jun-2024\0\\# def2svp wb97xd scrf=(smd,solvent=acetonitrile) g09def
 ault scf=(xqc,maxcycle=64) force guess=read nosymm\\Title Card\\-1,1\C
 l,-9.65857415,8.26999082,10.53521462\C,-8.37123489,4.27555288,12.20355
 786\C,-9.17025195,3.94878566,11.091502\C,-10.08219387,2.88489434,11.21
 998311\C,-10.20856086,2.18870994,12.4178747\C,-9.41266735,2.52913707,1
 3.51274985\C,-8.49171971,3.57297843,13.39805522\H,-7.64861248,5.091907
 33,12.13863543\H,-10.70967272,2.61794692,10.36484735\H,-10.93572117,1.
 37733066,12.50011366\H,-9.50074159,1.97623605,14.45029544\H,-7.8679542
 1,3.84905079,14.25196156\C,-9.12154208,4.69697379,9.83446356\C,-8.4364
 3887,5.84054033,9.62575914\H,-9.73027583,4.28773831,9.02004968\H,-8.46
 917005,6.34607212,8.6604177\H,-7.77479273,6.27020685,10.37769228\O,-0.
 97541061,-1.81596072,7.45785756\O,-8.37759886,-1.32591365,7.46192484\O
 ,-7.01016305,1.33758604,10.4832417\O,-2.33149437,-4.39776037,10.555022
 26\W,-3.38391365,0.70706008,6.49713059\W,-5.99218961,-3.83770121,6.566
 79577\W,-3.59111895,0.87671545,11.40188811\W,-5.76759578,-3.88374535,1
 1.47491144\W,-2.44062053,-2.58781919,6.38490665\W,-6.91369858,-0.54269
 405,6.35460359\W,-6.79329058,-0.26179545,11.58043751\W,-2.55212072,-2.
 74346056,11.6164412\O,-3.14439818,1.89926369,5.32672631\O,-6.13077813,
 -5.08690046,5.42389596\O,-2.66446478,1.71608325,12.55314211\O,-6.68163
 802,-4.69244052,12.6553466\O,-2.66163902,-0.91185545,5.5876677\O,-6.69
 358652,-2.27687782,5.62079436\O,-5.2836491,0.54264377,12.35944155\O,-4
 .05354764,-3.54236232,12.40894499\O,0.33461366,-0.0535526,9.27181006\O
 ,-9.69268703,-3.02344064,9.31834383\O,-6.3625862,3.41840375,8.67126976
 \O,-2.99383247,-6.49546135,8.74571678\O,-1.76362045,0.73507826,7.47827
 685\O,-7.59739216,-3.88242128,7.54613058\O,-4.48121479,2.19386312,10.4
 2330514\O,-4.86852517,-5.23940253,10.52415366\O,-1.61223849,-3.5223670
 6,5.23156555\O,-7.78962611,0.26295955,5.15746126\O,-8.00835925,-0.1613
 9914,12.76230663\O,-1.32316374,-2.86778654,12.78292107\W,-1.22804153,-
 0.56457668,8.83960229\W,-8.13029336,-2.52428203,8.87368065\W,-5.881844
 93,1.84730424,9.04686495\W,-3.48025022,-4.92085089,9.16045858\O,-4.216
 67751,-3.12183065,6.0680907\O,-5.13550835,-0.05666632,6.01792576\O,-6.
 16573596,-2.01340533,11.92135597\O,-3.16117363,-0.99311981,11.91513246
 \O,-4.34283654,1.5807539,7.84399535\O,-5.00694642,-4.69835762,7.921998
 78\O,-2.29805053,0.55824758,10.07448942\O,-7.04891428,-3.6202923,10.13
 300641\O,-2.57253366,-3.91435972,7.85921468\O,-6.79940007,0.78863744,7
 .80069101\O,-7.8136749,-1.18027261,10.15240543\O,-1.54116745,-1.884411
 03,10.14653827\O,-3.34730764,-1.16458205,8.01462131\O,-6.00667237,-1.9
 6730143,8.03434739\O,-5.10263826,-0.21550006,9.94299439\O,-4.23620072,
 -2.85382071,9.97588807\K,-3.21997356,-6.14117857,5.64865814\K,-0.12809
 436,0.00634577,12.31642258\K,-9.28790279,-2.81890835,12.41003618\V,-4.
 67526586,-1.54657276,8.9899041\\Version=ES64L-G16RevC.01\HF=-7327.7020
 975\RMSD=2.715e-09\RMSF=5.895e-03\Dipole=9.9619964,-21.9279459,2.37717
 81\Quadrupole=-67.8900348,45.78235,22.1076848,331.71925,333.577754,-35
 4.7007651\PG=C01 [X(C8H8Cl1K3O40V1W12)]\\@
 The archive entry for this job was punched.


 SUCCESS-- IF YOU HAVE TRIED TO DO SOMETHING AND FAILED
           YOU ARE BETTER OFF THAN IF YOU HAD TRIED TO DO
           NOTHING AND SUCCEEDED.

                   -- FROM THE BACK OF A SUGAR PACKET
 Job cpu time:       0 days  9 hours 29 minutes 15.8 seconds.
 Elapsed time:       0 days  0 hours 10 minutes 47.7 seconds.
 File lengths (MBytes):  RWF=   1258 Int=      0 D2E=      0 Chk=    249 Scr=      1
 Normal termination of Gaussian 16 at Mon Jun  3 02:42:40 2024.
