 Entering Gaussian System, Link 0=g16
 Input=JOBS/66_B.gjf
 Output=JOBS/66_B.log
 Initial command:
 /data/app/gaussian/C01-avx2//g16/l1.exe "/tmp/Gau-706105.inp" -scrdir="/tmp/"
 Entering Link 1 = /data/app/gaussian/C01-avx2//g16/l1.exe PID=    706106.
  
 Copyright (c) 1988-2019, Gaussian, Inc.  All Rights Reserved.
  
 This is part of the Gaussian(R) 16 program.  It is based on
 the Gaussian(R) 09 system (copyright 2009, Gaussian, Inc.),
 the Gaussian(R) 03 system (copyright 2003, Gaussian, Inc.),
 the Gaussian(R) 98 system (copyright 1998, Gaussian, Inc.),
 the Gaussian(R) 94 system (copyright 1995, Gaussian, Inc.),
 the Gaussian 92(TM) system (copyright 1992, Gaussian, Inc.),
 the Gaussian 90(TM) system (copyright 1990, Gaussian, Inc.),
 the Gaussian 88(TM) system (copyright 1988, Gaussian, Inc.),
 the Gaussian 86(TM) system (copyright 1986, Carnegie Mellon
 University), and the Gaussian 82(TM) system (copyright 1983,
 Carnegie Mellon University). Gaussian is a federally registered
 trademark of Gaussian, Inc.
  
 This software contains proprietary and confidential information,
 including trade secrets, belonging to Gaussian, Inc.
  
 This software is provided under written license and may be
 used, copied, transmitted, or stored only in accord with that
 written license.
  
 The following legend is applicable only to US Government
 contracts under FAR:
  
                    RESTRICTED RIGHTS LEGEND
  
 Use, reproduction and disclosure by the US Government is
 subject to restrictions as set forth in subparagraphs (a)
 and (c) of the Commercial Computer Software - Restricted
 Rights clause in FAR 52.227-19.
  
 Gaussian, Inc.
 340 Quinnipiac St., Bldg. 40, Wallingford CT 06492
  
  
 ---------------------------------------------------------------
 Warning -- This program may not be used in any manner that
 competes with the business of Gaussian, Inc. or will provide
 assistance to any competitor of Gaussian, Inc.  The licensee
 of this program is prohibited from giving any competitor of
 Gaussian, Inc. access to this program.  By using this program,
 the user acknowledges that Gaussian, Inc. is engaged in the
 business of creating and licensing software in the field of
 computational chemistry and represents and warrants to the
 licensee that it is not a competitor of Gaussian, Inc. and that
 it will not use this program in any manner prohibited above.
 ---------------------------------------------------------------
  

 Cite this work as:
 Gaussian 16, Revision C.01,
 M. J. Frisch, G. W. Trucks, H. B. Schlegel, G. E. Scuseria, 
 M. A. Robb, J. R. Cheeseman, G. Scalmani, V. Barone, 
 G. A. Petersson, H. Nakatsuji, X. Li, M. Caricato, A. V. Marenich, 
 J. Bloino, B. G. Janesko, R. Gomperts, B. Mennucci, H. P. Hratchian, 
 J. V. Ortiz, A. F. Izmaylov, J. L. Sonnenberg, D. Williams-Young, 
 F. Ding, F. Lipparini, F. Egidi, J. Goings, B. Peng, A. Petrone, 
 T. Henderson, D. Ranasinghe, V. G. Zakrzewski, J. Gao, N. Rega, 
 G. Zheng, W. Liang, M. Hada, M. Ehara, K. Toyota, R. Fukuda, 
 J. Hasegawa, M. Ishida, T. Nakajima, Y. Honda, O. Kitao, H. Nakai, 
 T. Vreven, K. Throssell, J. A. Montgomery, Jr., J. E. Peralta, 
 F. Ogliaro, M. J. Bearpark, J. J. Heyd, E. N. Brothers, K. N. Kudin, 
 V. N. Staroverov, T. A. Keith, R. Kobayashi, J. Normand, 
 K. Raghavachari, A. P. Rendell, J. C. Burant, S. S. Iyengar, 
 J. Tomasi, M. Cossi, J. M. Millam, M. Klene, C. Adamo, R. Cammi, 
 J. W. Ochterski, R. L. Martin, K. Morokuma, O. Farkas, 
 J. B. Foresman, and D. J. Fox, Gaussian, Inc., Wallingford CT, 2019.
 
 ******************************************
 Gaussian 16:  ES64L-G16RevC.01  3-Jul-2019
                 3-Jun-2024 
 ******************************************
 %chk=b.chk
 %nprocshared=56
 Will use up to   56 processors via shared memory.
 %mem=96gb
 ----------------------------------------------------------------------
 # def2svp wb97xd scrf=(smd,solvent=acetonitrile) g09default scf=(xqc,m
 axcycle=64) force guess=read nosymm
 ----------------------------------------------------------------------
 1/10=7,30=1,38=1,158=3,167=1/1,3;
 2/12=2,15=1,17=6,18=5,40=1/2;
 3/5=43,7=101,11=2,25=1,27=10,30=1,70=32201,71=1,72=2,74=-58,75=-4,116=-2,158=3/1,2,3;
 4/5=1,60=-1/1;
 5/5=2,7=64,8=3,13=1,38=6,53=2,87=10/2,8;
 6/7=2,8=2,9=2,10=2,28=1,87=10/1;
 7/29=1,30=1,87=10/1,2,3,16;
 1/10=7,30=1,158=3,167=1/3;
 99//99;
 Using 2006 physical constants.
 ----------
 Title Card
 ----------
 Symbolic Z-matrix:
 Charge = -1 Multiplicity = 1
 17                   -9.6637    8.27118   10.53544 
 6                    -8.37456   4.27841   12.20253 
 6                    -9.17483   3.95174   11.09139 
 6                    -10.08587   2.88712   11.22072 
 6                    -10.20875   2.18926   12.41817 
 6                    -9.41036   2.52857   13.51147 
 6                    -8.49145   3.57414   13.39641 
 1                    -7.65392   5.09644   12.13768 
 1                    -10.71547   2.62056   10.36703 
 1                    -10.93549   1.37756   12.50134 
 1                    -9.49488   1.9737    14.44822 
 1                    -7.86669   3.8507    14.24934 
 6                    -9.1271    4.70108   9.83489 
 6                    -8.43753   5.84192   9.6257 
 1                    -9.73987   4.29539   9.02171 
 1                    -8.46984   6.34888   8.66115 
 1                    -7.7711    6.26683   10.37619 
 8                    -0.97531  -1.81759   7.457 
 8                    -8.37673  -1.32502   7.46171 
 8                    -7.00942   1.33638   10.48447 
 8                    -2.33071  -4.39773   10.55505 
 74                   -3.38211   0.70869   6.49916 
 74                   -5.99287  -3.83948   6.5683 
 74                   -3.589     0.87762   11.40043 
 74                   -5.76821  -3.88578   11.47351 
 74                   -2.44206  -2.58754   6.38282 
 74                   -6.91122  -0.54355   6.35308 
 74                   -6.79082  -0.26306   11.58274 
 74                   -2.55311  -2.74361   11.61794 
 8                    -3.14177   1.90184   5.3301 
 8                    -6.13228  -5.08877   5.42538 
 8                    -2.66261   1.71733   12.55152 
 8                    -6.68164  -4.69558   12.6537 
 8                    -2.66141  -0.91111   5.58753 
 8                    -6.69276  -2.27771   5.6209 
 8                    -5.28139   0.54183   12.35982 
 8                    -4.05397  -3.54325   12.4089 
 8                     0.33668  -0.05788   9.27111 
 8                    -9.69336  -3.02044   9.31801 
 8                    -6.36494   3.41697   8.67248 
 8                    -2.99108  -6.49542   8.74589 
 8                    -1.76213   0.73431   7.47934 
 8                    -7.59767  -3.88221   7.54694 
 8                    -4.48063   2.19376   10.42317 
 8                    -4.86778  -5.23995   10.52306 
 8                    -1.61399  -3.52186   5.22895 
 8                    -7.78703   0.26183   5.15554 
 8                    -8.00544  -0.16187   12.76488 
 8                    -1.32418  -2.86843   12.78454 
 74                   -1.22631  -0.56785   8.83948 
 74                   -8.13055  -2.52204   8.87381 
 74                   -5.88331   1.84629   9.04742 
 74                   -3.47795  -4.92063   9.16016 
 8                    -4.21723  -3.12241   6.06746 
 8                    -5.13404  -0.05594   6.0178 
 8                    -6.16549  -2.01499   11.92223 
 8                    -3.15991  -0.99317   11.91556 
 8                    -4.34233   1.58097   7.84502 
 8                    -5.00626  -4.69966   7.9216 
 8                    -2.29618   0.5575    10.0744 
 8                    -7.04972  -3.62075   10.13314 
 8                    -2.57225  -3.91473   7.85808 
 8                    -6.7988    0.78804   7.80054 
 8                    -7.81289  -1.18024   10.15353 
 8                    -1.5403   -1.88555   10.14713 
 8                    -3.34672  -1.16499   8.01458 
 8                    -6.0061   -1.9676    8.0345 
 8                    -5.10163  -0.21601   9.94336 
 8                    -4.23577  -2.85416   9.97577 
 19                   -3.2207   -6.1424    5.64865 
 19                   -0.12836   0.00166   12.31624 
 19                   -9.28901  -2.819     12.4082 
 23                   -4.67463  -1.54696   8.98988 
 

 GradGradGradGradGradGradGradGradGradGradGradGradGradGradGradGradGradGrad
 Berny optimization.
 Initialization pass.
 Trust Radius=3.00D-01 FncErr=1.00D-07 GrdErr=1.00D-07 EigMax=2.50D+02 EigMin=1.00D-04
 Number of steps in this run=      2 maximum allowed number of steps=      2.
 GradGradGradGradGradGradGradGradGradGradGradGradGradGradGradGradGradGrad

 Symmetry turned off by external request.
 Stoichiometry    C8H8ClK3O40VW12(1-)
 Framework group  C1[X(C8H8ClK3O40VW12)]
 Deg. of freedom   213
 Full point group                 C1      NOp   1
                          Input orientation:                          
 ---------------------------------------------------------------------
 Center     Atomic      Atomic             Coordinates (Angstroms)
 Number     Number       Type             X           Y           Z
 ---------------------------------------------------------------------
      1         17           0       -9.663698    8.271175   10.535436
      2          6           0       -8.374556    4.278411   12.202533
      3          6           0       -9.174829    3.951736   11.091387
      4          6           0      -10.085871    2.887122   11.220724
      5          6           0      -10.208753    2.189262   12.418165
      6          6           0       -9.410362    2.528573   13.511472
      7          6           0       -8.491447    3.574139   13.396407
      8          1           0       -7.653916    5.096436   12.137676
      9          1           0      -10.715468    2.620556   10.367035
     10          1           0      -10.935494    1.377564   12.501340
     11          1           0       -9.494878    1.973699   14.448216
     12          1           0       -7.866694    3.850704   14.249343
     13          6           0       -9.127103    4.701079    9.834887
     14          6           0       -8.437535    5.841916    9.625698
     15          1           0       -9.739870    4.295391    9.021714
     16          1           0       -8.469842    6.348885    8.661146
     17          1           0       -7.771095    6.266835   10.376186
     18          8           0       -0.975315   -1.817592    7.456995
     19          8           0       -8.376731   -1.325022    7.461708
     20          8           0       -7.009416    1.336384   10.484474
     21          8           0       -2.330709   -4.397735   10.555045
     22         74           0       -3.382107    0.708690    6.499164
     23         74           0       -5.992870   -3.839480    6.568304
     24         74           0       -3.589002    0.877617   11.400427
     25         74           0       -5.768212   -3.885776   11.473511
     26         74           0       -2.442060   -2.587536    6.382817
     27         74           0       -6.911223   -0.543547    6.353080
     28         74           0       -6.790822   -0.263064   11.582741
     29         74           0       -2.553109   -2.743606   11.617938
     30          8           0       -3.141767    1.901836    5.330104
     31          8           0       -6.132275   -5.088773    5.425384
     32          8           0       -2.662610    1.717334   12.551516
     33          8           0       -6.681635   -4.695575   12.653696
     34          8           0       -2.661405   -0.911113    5.587526
     35          8           0       -6.692758   -2.277711    5.620904
     36          8           0       -5.281395    0.541832   12.359825
     37          8           0       -4.053966   -3.543250   12.408899
     38          8           0        0.336684   -0.057876    9.271114
     39          8           0       -9.693355   -3.020440    9.318009
     40          8           0       -6.364942    3.416974    8.672479
     41          8           0       -2.991079   -6.495421    8.745895
     42          8           0       -1.762131    0.734309    7.479342
     43          8           0       -7.597671   -3.882210    7.546936
     44          8           0       -4.480632    2.193760   10.423171
     45          8           0       -4.867779   -5.239951   10.523059
     46          8           0       -1.613995   -3.521859    5.228945
     47          8           0       -7.787033    0.261831    5.155544
     48          8           0       -8.005438   -0.161871   12.764878
     49          8           0       -1.324179   -2.868431   12.784544
     50         74           0       -1.226313   -0.567851    8.839476
     51         74           0       -8.130554   -2.522043    8.873806
     52         74           0       -5.883310    1.846290    9.047424
     53         74           0       -3.477949   -4.920630    9.160160
     54          8           0       -4.217228   -3.122409    6.067462
     55          8           0       -5.134039   -0.055937    6.017800
     56          8           0       -6.165485   -2.014994   11.922231
     57          8           0       -3.159911   -0.993170   11.915559
     58          8           0       -4.342328    1.580965    7.845016
     59          8           0       -5.006264   -4.699662    7.921603
     60          8           0       -2.296179    0.557499   10.074397
     61          8           0       -7.049720   -3.620751   10.133137
     62          8           0       -2.572246   -3.914730    7.858081
     63          8           0       -6.798800    0.788044    7.800540
     64          8           0       -7.812892   -1.180236   10.153528
     65          8           0       -1.540301   -1.885545   10.147130
     66          8           0       -3.346716   -1.164992    8.014579
     67          8           0       -6.006101   -1.967602    8.034502
     68          8           0       -5.101633   -0.216012    9.943359
     69          8           0       -4.235771   -2.854157    9.975772
     70         19           0       -3.220700   -6.142403    5.648652
     71         19           0       -0.128356    0.001664   12.316241
     72         19           0       -9.289007   -2.819001   12.408200
     73         23           0       -4.674627   -1.546957    8.989882
 ---------------------------------------------------------------------
 Rotational constants (GHZ):           0.0172001           0.0131992           0.0129780
 Standard basis: def2SVP (5D, 7F)
  1217 basis functions,  2313 primitive gaussians,  1337 cartesian basis functions
   321 alpha electrons      321 beta electrons
       nuclear repulsion energy     20966.8393058399 Hartrees.
 NAtoms=   73 NActive=   73 NUniq=   73 SFac= 1.00D+00 NAtFMM=   60 NAOKFM=T Big=T
 Integral buffers will be    131072 words long.
 Raffenetti 2 integral format.
 Two-electron integral symmetry is turned off.
 Nuclear repulsion after empirical dispersion term =    20966.5631491779 Hartrees.
 Force PCM accuracy= 1.00D-10.
 ------------------------------------------------------------------------------
 Polarizable Continuum Model (PCM)
 =================================
 Model                : PCM (using non-symmetric T matrix).
 Atomic radii         : SMD-Coulomb.
 Polarization charges : Total charges.
 Charge compensation  : None.
 Solution method      : On-the-fly selection.
 Cavity type          : VdW (van der Waals Surface) (Alpha=1.000).
 Cavity algorithm     : GePol (No added spheres)
                        Default sphere list used, NSphG=   73.
                        Lebedev-Laikov grids with approx.  5.0 points / Ang**2.
                        Smoothing algorithm: York/Karplus (Gamma=1.0000).
                        Polarization charges: spherical gaussians, with
                                              point-specific exponents (IZeta= 3).
                        Self-potential: point-specific (ISelfS= 7).
                        Self-field    : sphere-specific E.n sum rule (ISelfD= 2).
 1st derivatives      : Analytical E(r).r(x)/FMM algorithm (CHGder, D1EAlg=3).
                        Cavity 1st derivative terms included.
 Solvent              : Acetonitrile, Eps=  35.688000 Eps(inf)=   1.806874
 ------------------------------------------------------------------------------
 ------------------------------------------------------------------------------
 Atomic radii for non-electrostatic terms: SMD-CDS.
 ------------------------------------------------------------------------------
 Nuclear repulsion after PCM non-electrostatic terms =    20966.5574147626 Hartrees.
 One-electron integrals computed using PRISM.
   1 Symmetry operations used in ECPInt.
 ECPInt:  NShTT=  127765 NPrTT=  468030 LenC2=   96467 LenP2D=  220721.
 LDataN:  DoStor=T MaxTD1= 8 Len=  415
 NBasis=  1217 RedAO= T EigKep=  1.38D-04  NBF=  1217
 NBsUse=  1217 1.00D-06 EigRej= -1.00D+00 NBFU=  1217
 Defaulting to unpruned grid for atomic number  74.
 Defaulting to unpruned grid for atomic number  74.
 Defaulting to unpruned grid for atomic number  74.
 Defaulting to unpruned grid for atomic number  74.
 Defaulting to unpruned grid for atomic number  74.
 Defaulting to unpruned grid for atomic number  74.
 Defaulting to unpruned grid for atomic number  74.
 Defaulting to unpruned grid for atomic number  74.
 Initial guess from the checkpoint file:  "b.chk"
 B after Tr=     0.001031   -0.000130    0.000331
         Rot=    1.000000   -0.000035    0.000004    0.000033 Ang=  -0.01 deg.
 Initial guess <Sx>= 0.0000 <Sy>= 0.0000 <Sz>= 0.0000 <S**2>= 1.0225 S= 0.6281
 Requested convergence on RMS density matrix=1.00D-08 within  64 cycles.
 Requested convergence on MAX density matrix=1.00D-06.
 Requested convergence on             energy=1.00D-06.
 No special actions if energy rises.
 Defaulting to unpruned grid for atomic number  74.
 Defaulting to unpruned grid for atomic number  74.
 Defaulting to unpruned grid for atomic number  74.
 Defaulting to unpruned grid for atomic number  74.
 Defaulting to unpruned grid for atomic number  74.
 Defaulting to unpruned grid for atomic number  74.
 Defaulting to unpruned grid for atomic number  74.
 Defaulting to unpruned grid for atomic number  74.
 Defaulting to unpruned grid for atomic number  74.
 Defaulting to unpruned grid for atomic number  74.
 Defaulting to unpruned grid for atomic number  74.
 Defaulting to unpruned grid for atomic number  74.
 Defaulting to unpruned grid for atomic number  74.
 Defaulting to unpruned grid for atomic number  74.
 Defaulting to unpruned grid for atomic number  74.
 Defaulting to unpruned grid for atomic number  74.
 Defaulting to unpruned grid for atomic number  74.
 Defaulting to unpruned grid for atomic number  74.
 Defaulting to unpruned grid for atomic number  74.
 Defaulting to unpruned grid for atomic number  74.
 Defaulting to unpruned grid for atomic number  74.
 Defaulting to unpruned grid for atomic number  74.
 Defaulting to unpruned grid for atomic number  74.
 Defaulting to unpruned grid for atomic number  74.
 Defaulting to unpruned grid for atomic number  74.
 Defaulting to unpruned grid for atomic number  74.
 Defaulting to unpruned grid for atomic number  74.
 Defaulting to unpruned grid for atomic number  74.
 Defaulting to unpruned grid for atomic number  74.
 Defaulting to unpruned grid for atomic number  74.
 Defaulting to unpruned grid for atomic number  74.
 Defaulting to unpruned grid for atomic number  74.
 Defaulting to unpruned grid for atomic number  74.
 Defaulting to unpruned grid for atomic number  74.
 Defaulting to unpruned grid for atomic number  74.
 Defaulting to unpruned grid for atomic number  74.
 Defaulting to unpruned grid for atomic number  74.
 Defaulting to unpruned grid for atomic number  74.
 Defaulting to unpruned grid for atomic number  74.
 Defaulting to unpruned grid for atomic number  74.
 Defaulting to unpruned grid for atomic number  74.
 Defaulting to unpruned grid for atomic number  74.
 Defaulting to unpruned grid for atomic number  74.
 Defaulting to unpruned grid for atomic number  74.
 Defaulting to unpruned grid for atomic number  74.
 Defaulting to unpruned grid for atomic number  74.
 Defaulting to unpruned grid for atomic number  74.
 Defaulting to unpruned grid for atomic number  74.
 Defaulting to unpruned grid for atomic number  74.
 Defaulting to unpruned grid for atomic number  74.
 Defaulting to unpruned grid for atomic number  74.
 Defaulting to unpruned grid for atomic number  74.
 Defaulting to unpruned grid for atomic number  74.
 Defaulting to unpruned grid for atomic number  74.
 Defaulting to unpruned grid for atomic number  74.
 Defaulting to unpruned grid for atomic number  74.
 Inv3:  Mode=1 IEnd=    87577227.
 Iteration    1 A*A^-1 deviation from unit magnitude is 3.77D-15 for   4090.
 Iteration    1 A*A^-1 deviation from orthogonality  is 3.11D-15 for   3185   2501.
 Iteration    1 A^-1*A deviation from unit magnitude is 3.33D-15 for   5325.
 Iteration    1 A^-1*A deviation from orthogonality  is 1.55D-10 for   3267   3262.
 Iteration    2 A*A^-1 deviation from unit magnitude is 5.66D-15 for   2913.
 Iteration    2 A*A^-1 deviation from orthogonality  is 5.11D-15 for   5251   1989.
 Iteration    2 A^-1*A deviation from unit magnitude is 1.11D-15 for    549.
 Iteration    2 A^-1*A deviation from orthogonality  is 6.03D-16 for   5256   5143.
 Error on total polarization charges =  0.01569
 SCF Done:  E(UwB97XD) =  -7327.70209582     A.U. after   17 cycles
            NFock= 17  Conv=0.41D-08     -V/T= 2.0831
 <Sx>= 0.0000 <Sy>= 0.0000 <Sz>= 0.0000 <S**2>= 1.0225 S= 0.6280
 <L.S>=  0.00000000000    
 SMD-CDS (non-electrostatic) energy       (kcal/mol) =      -3.60
 (included in total energy above)
 Annihilation of the first spin contaminant:
 S**2 before annihilation     1.0225,   after     0.1799
 QCSCF skips out because SCF is already converged.

 **********************************************************************

            Population analysis using the SCF Density.

 **********************************************************************

 Alpha  occ. eigenvalues -- -197.10780-129.99084-129.99082-129.99015-101.62015
 Alpha  occ. eigenvalues --  -22.44454 -19.28527 -19.28513 -19.28455 -19.28450
 Alpha  occ. eigenvalues --  -19.28407 -19.28389 -19.28376 -19.28363 -19.28349
 Alpha  occ. eigenvalues --  -19.28278 -19.28242 -19.28174 -19.26964 -19.26948
 Alpha  occ. eigenvalues --  -19.26936 -19.26892 -19.26891 -19.26886 -19.26863
 Alpha  occ. eigenvalues --  -19.26857 -19.26846 -19.26845 -19.26831 -19.26830
 Alpha  occ. eigenvalues --  -19.26826 -19.26823 -19.26810 -19.26803 -19.26796
 Alpha  occ. eigenvalues --  -19.26784 -19.26779 -19.26778 -19.26770 -19.26727
 Alpha  occ. eigenvalues --  -19.26676 -19.26653 -19.24741 -19.24701 -19.24674
 Alpha  occ. eigenvalues --  -19.24657 -18.94029 -18.92956 -18.92890 -13.36493
 Alpha  occ. eigenvalues --  -13.36482 -13.36419 -10.69419 -10.69415 -10.69415
 Alpha  occ. eigenvalues --  -10.69411 -10.69406 -10.69401 -10.69347 -10.69343
 Alpha  occ. eigenvalues --  -10.69341 -10.33074 -10.32285 -10.32020 -10.31038
 Alpha  occ. eigenvalues --  -10.31027 -10.31020 -10.30590 -10.30545  -9.52423
 Alpha  occ. eigenvalues --   -7.27306  -7.26967  -7.26964  -3.21103  -3.21094
 Alpha  occ. eigenvalues --   -3.21068  -3.21042  -3.21026  -3.21016  -3.21005
 Alpha  occ. eigenvalues --   -3.20998  -3.20997  -3.20857  -3.20849  -3.20827
 Alpha  occ. eigenvalues --   -2.78765  -1.85347  -1.85290  -1.85281  -1.85250
 Alpha  occ. eigenvalues --   -1.85146  -1.85079  -1.85063  -1.85042  -1.85026
 Alpha  occ. eigenvalues --   -1.85019  -1.84999  -1.84948  -1.84394  -1.84281
 Alpha  occ. eigenvalues --   -1.84272  -1.84253  -1.84220  -1.84207  -1.84151
 Alpha  occ. eigenvalues --   -1.84133  -1.84106  -1.84098  -1.84067  -1.84059
 Alpha  occ. eigenvalues --   -1.83956  -1.83918  -1.83886  -1.83881  -1.83862
 Alpha  occ. eigenvalues --   -1.83828  -1.83801  -1.83792  -1.83786  -1.83690
 Alpha  occ. eigenvalues --   -1.83682  -1.83670  -1.81931  -1.81601  -1.81565
 Alpha  occ. eigenvalues --   -1.50196  -1.50190  -1.50131  -1.08621  -1.07000
 Alpha  occ. eigenvalues --   -1.06958  -1.06919  -1.06014  -1.06006  -1.05983
 Alpha  occ. eigenvalues --   -1.04586  -1.04575  -1.04569  -1.03974  -1.03969
 Alpha  occ. eigenvalues --   -1.03702  -1.03365  -1.03334  -1.03313  -1.03050
 Alpha  occ. eigenvalues --   -1.03032  -1.02264  -1.02234  -1.02229  -1.02110
 Alpha  occ. eigenvalues --   -1.02028  -1.02003  -1.01918  -1.01909  -1.01797
 Alpha  occ. eigenvalues --   -1.01774  -1.01757  -1.01622  -1.01586  -1.01578
 Alpha  occ. eigenvalues --   -1.01316  -1.00823  -1.00785  -1.00729  -1.00726
 Alpha  occ. eigenvalues --   -0.99995  -0.99940  -0.99879  -0.96235  -0.89354
 Alpha  occ. eigenvalues --   -0.85641  -0.85639  -0.85586  -0.85497  -0.85485
 Alpha  occ. eigenvalues --   -0.85484  -0.85454  -0.85428  -0.85415  -0.84313
 Alpha  occ. eigenvalues --   -0.82505  -0.80954  -0.71961  -0.69651  -0.65117
 Alpha  occ. eigenvalues --   -0.62324  -0.61713  -0.61653  -0.61626  -0.60668
 Alpha  occ. eigenvalues --   -0.58984  -0.58960  -0.58950  -0.58895  -0.58821
 Alpha  occ. eigenvalues --   -0.58774  -0.58746  -0.58710  -0.58554  -0.57370
 Alpha  occ. eigenvalues --   -0.57331  -0.57299  -0.57015  -0.56815  -0.56501
 Alpha  occ. eigenvalues --   -0.56453  -0.56415  -0.56018  -0.55867  -0.55367
 Alpha  occ. eigenvalues --   -0.55357  -0.55318  -0.54433  -0.54186  -0.54157
 Alpha  occ. eigenvalues --   -0.54000  -0.53687  -0.53630  -0.53623  -0.52789
 Alpha  occ. eigenvalues --   -0.52663  -0.52613  -0.52501  -0.52464  -0.51494
 Alpha  occ. eigenvalues --   -0.51485  -0.51469  -0.51387  -0.51327  -0.50825
 Alpha  occ. eigenvalues --   -0.50576  -0.50541  -0.50491  -0.50409  -0.50345
 Alpha  occ. eigenvalues --   -0.50287  -0.50090  -0.50047  -0.50023  -0.49773
 Alpha  occ. eigenvalues --   -0.49678  -0.49647  -0.49516  -0.49499  -0.49298
 Alpha  occ. eigenvalues --   -0.49255  -0.49204  -0.49121  -0.49070  -0.48992
 Alpha  occ. eigenvalues --   -0.48729  -0.48564  -0.48543  -0.48483  -0.47707
 Alpha  occ. eigenvalues --   -0.47685  -0.47221  -0.46487  -0.46052  -0.46034
 Alpha  occ. eigenvalues --   -0.45886  -0.45876  -0.45763  -0.45638  -0.45228
 Alpha  occ. eigenvalues --   -0.45151  -0.45145  -0.44841  -0.44646  -0.44503
 Alpha  occ. eigenvalues --   -0.44484  -0.44466  -0.44295  -0.44260  -0.44241
 Alpha  occ. eigenvalues --   -0.43434  -0.43168  -0.42562  -0.42534  -0.42464
 Alpha  occ. eigenvalues --   -0.42326  -0.42212  -0.42176  -0.42167  -0.41641
 Alpha  occ. eigenvalues --   -0.41627  -0.41584  -0.41046  -0.41000  -0.40796
 Alpha  occ. eigenvalues --   -0.40782  -0.40768  -0.40420  -0.40404  -0.40366
 Alpha  occ. eigenvalues --   -0.40228  -0.40200  -0.40185  -0.40143  -0.39882
 Alpha  occ. eigenvalues --   -0.39362  -0.39277  -0.39250  -0.39159  -0.39055
 Alpha  occ. eigenvalues --   -0.38950  -0.38919  -0.38831  -0.38759  -0.38714
 Alpha  occ. eigenvalues --   -0.38331  -0.38309  -0.38273  -0.38112  -0.37219
 Alpha  occ. eigenvalues --   -0.37198  -0.34660  -0.34623  -0.33695  -0.30484
 Alpha  occ. eigenvalues --   -0.25727
 Alpha virt. eigenvalues --   -0.11957  -0.06281  -0.06230  -0.04795  -0.04759
 Alpha virt. eigenvalues --   -0.04670  -0.01528  -0.01412  -0.01364  -0.01115
 Alpha virt. eigenvalues --   -0.00928  -0.00901  -0.00864  -0.00165  -0.00092
 Alpha virt. eigenvalues --   -0.00056   0.00676   0.00710   0.00737   0.00909
 Alpha virt. eigenvalues --    0.01011   0.01203   0.01786   0.01832   0.01884
 Alpha virt. eigenvalues --    0.02488   0.02735   0.02795   0.02867   0.03499
 Alpha virt. eigenvalues --    0.03561   0.03724   0.03847   0.03940   0.04303
 Alpha virt. eigenvalues --    0.04328   0.04358   0.04376   0.04595   0.05031
 Alpha virt. eigenvalues --    0.05092   0.05972   0.06447   0.07961   0.08182
 Alpha virt. eigenvalues --    0.08451   0.08587   0.08788   0.08868   0.09297
 Alpha virt. eigenvalues --    0.09709   0.09842   0.09860   0.09914   0.09999
 Alpha virt. eigenvalues --    0.10021   0.10178   0.10346   0.10871   0.10954
 Alpha virt. eigenvalues --    0.11545   0.11622   0.11917   0.12176   0.12258
 Alpha virt. eigenvalues --    0.12422   0.12444   0.12488   0.12873   0.13295
 Alpha virt. eigenvalues --    0.13401   0.13589   0.14075   0.14285   0.14740
 Alpha virt. eigenvalues --    0.14908   0.14951   0.15195   0.15346   0.15881
 Alpha virt. eigenvalues --    0.16098   0.16769   0.17045   0.17688   0.17918
 Alpha virt. eigenvalues --    0.18296   0.18421   0.18590   0.18734   0.18925
 Alpha virt. eigenvalues --    0.19258   0.19355   0.19496   0.19514   0.19566
 Alpha virt. eigenvalues --    0.19687   0.19832   0.20017   0.20651   0.20936
 Alpha virt. eigenvalues --    0.21117   0.21295   0.21323   0.21561   0.21605
 Alpha virt. eigenvalues --    0.21688   0.21897   0.21942   0.22163   0.22198
 Alpha virt. eigenvalues --    0.22357   0.22737   0.23144   0.23169   0.23308
 Alpha virt. eigenvalues --    0.23327   0.23498   0.23748   0.24000   0.24274
 Alpha virt. eigenvalues --    0.24417   0.24619   0.24695   0.25025   0.25067
 Alpha virt. eigenvalues --    0.25356   0.25536   0.25566   0.26254   0.26759
 Alpha virt. eigenvalues --    0.26842   0.27120   0.27328   0.27670   0.27878
 Alpha virt. eigenvalues --    0.27962   0.28487   0.28692   0.28762   0.29225
 Alpha virt. eigenvalues --    0.29279   0.29302   0.29391   0.29543   0.29742
 Alpha virt. eigenvalues --    0.30083   0.30406   0.30717   0.31273   0.31530
 Alpha virt. eigenvalues --    0.31830   0.32211   0.32317   0.32776   0.33106
 Alpha virt. eigenvalues --    0.33613   0.34400   0.35436   0.36980   0.37048
 Alpha virt. eigenvalues --    0.38209   0.38618   0.38937   0.39309   0.39531
 Alpha virt. eigenvalues --    0.40392   0.41358   0.41728   0.41830   0.41928
 Alpha virt. eigenvalues --    0.42174   0.42460   0.42590   0.43387   0.43948
 Alpha virt. eigenvalues --    0.44194   0.44392   0.44841   0.45276   0.45492
 Alpha virt. eigenvalues --    0.45604   0.45737   0.45871   0.46452   0.46681
 Alpha virt. eigenvalues --    0.46938   0.47255   0.47860   0.47902   0.48202
 Alpha virt. eigenvalues --    0.48309   0.48460   0.48769   0.49008   0.49100
 Alpha virt. eigenvalues --    0.49465   0.49792   0.49878   0.49998   0.50013
 Alpha virt. eigenvalues --    0.50239   0.50359   0.50536   0.50673   0.50780
 Alpha virt. eigenvalues --    0.51204   0.51280   0.51676   0.51752   0.51949
 Alpha virt. eigenvalues --    0.52438   0.52709   0.52856   0.52978   0.53299
 Alpha virt. eigenvalues --    0.53771   0.54070   0.54252   0.54483   0.54636
 Alpha virt. eigenvalues --    0.54730   0.55442   0.55977   0.55986   0.56459
 Alpha virt. eigenvalues --    0.56647   0.56898   0.57060   0.57127   0.57610
 Alpha virt. eigenvalues --    0.58284   0.58731   0.58904   0.59124   0.59490
 Alpha virt. eigenvalues --    0.59915   0.60491   0.60757   0.61062   0.61617
 Alpha virt. eigenvalues --    0.61923   0.62824   0.63621   0.63971   0.64677
 Alpha virt. eigenvalues --    0.65029   0.65411   0.66432   0.66595   0.66662
 Alpha virt. eigenvalues --    0.67991   0.68323   0.68346   0.68786   0.69308
 Alpha virt. eigenvalues --    0.69415   0.69947   0.71132   0.71606   0.71695
 Alpha virt. eigenvalues --    0.72108   0.72328   0.72713   0.72910   0.73132
 Alpha virt. eigenvalues --    0.73251   0.73412   0.73545   0.73712   0.73888
 Alpha virt. eigenvalues --    0.74017   0.74246   0.75139   0.75600   0.75942
 Alpha virt. eigenvalues --    0.76047   0.76809   0.77049   0.78120   0.78322
 Alpha virt. eigenvalues --    0.78898   0.79341   0.79927   0.80264   0.80651
 Alpha virt. eigenvalues --    0.80749   0.81126   0.81936   0.82084   0.82294
 Alpha virt. eigenvalues --    0.83002   0.83352   0.83859   0.83932   0.84387
 Alpha virt. eigenvalues --    0.84521   0.84909   0.85373   0.86501   0.87071
 Alpha virt. eigenvalues --    0.88059   0.88215   0.89120   0.89577   0.89951
 Alpha virt. eigenvalues --    0.90238   0.90588   0.90645   0.90999   0.91713
 Alpha virt. eigenvalues --    0.91803   0.92231   0.92539   0.92588   0.92839
 Alpha virt. eigenvalues --    0.93172   0.93258   0.93417   0.93686   0.94642
 Alpha virt. eigenvalues --    0.94977   0.95348   0.95804   0.96636   0.97070
 Alpha virt. eigenvalues --    0.97237   0.97330   0.97579   0.97807   0.98512
 Alpha virt. eigenvalues --    0.99236   0.99441   0.99615   0.99877   1.00331
 Alpha virt. eigenvalues --    1.00465   1.00588   1.00687   1.00846   1.01019
 Alpha virt. eigenvalues --    1.01166   1.01269   1.01752   1.02198   1.02589
 Alpha virt. eigenvalues --    1.02703   1.03032   1.03389   1.03708   1.03885
 Alpha virt. eigenvalues --    1.04211   1.04229   1.04728   1.04861   1.05045
 Alpha virt. eigenvalues --    1.05193   1.05414   1.05546   1.05934   1.06585
 Alpha virt. eigenvalues --    1.06953   1.07029   1.07282   1.07453   1.07504
 Alpha virt. eigenvalues --    1.07770   1.07907   1.08211   1.08493   1.08828
 Alpha virt. eigenvalues --    1.08983   1.09180   1.09475   1.10193   1.10823
 Alpha virt. eigenvalues --    1.11102   1.11294   1.11895   1.12135   1.12307
 Alpha virt. eigenvalues --    1.12456   1.12875   1.13060   1.13112   1.13247
 Alpha virt. eigenvalues --    1.13470   1.13671   1.13788   1.14054   1.14243
 Alpha virt. eigenvalues --    1.14307   1.14732   1.15218   1.15372   1.16020
 Alpha virt. eigenvalues --    1.16364   1.16984   1.17451   1.17817   1.18464
 Alpha virt. eigenvalues --    1.18865   1.19632   1.19771   1.20024   1.20258
 Alpha virt. eigenvalues --    1.20939   1.22311   1.22796   1.22949   1.22998
 Alpha virt. eigenvalues --    1.23167   1.23481   1.23692   1.24094   1.24580
 Alpha virt. eigenvalues --    1.25686   1.26061   1.27144   1.27613   1.27680
 Alpha virt. eigenvalues --    1.28282   1.29003   1.29717   1.29990   1.30333
 Alpha virt. eigenvalues --    1.30554   1.30742   1.30852   1.31108   1.31774
 Alpha virt. eigenvalues --    1.31933   1.32104   1.32243   1.32279   1.32386
 Alpha virt. eigenvalues --    1.32576   1.32737   1.33078   1.33319   1.34431
 Alpha virt. eigenvalues --    1.34750   1.34917   1.34945   1.35444   1.35585
 Alpha virt. eigenvalues --    1.35685   1.35901   1.36199   1.36321   1.36477
 Alpha virt. eigenvalues --    1.36792   1.36964   1.37743   1.37914   1.37935
 Alpha virt. eigenvalues --    1.38194   1.38385   1.38717   1.38759   1.38927
 Alpha virt. eigenvalues --    1.39063   1.39329   1.39487   1.39627   1.39716
 Alpha virt. eigenvalues --    1.40154   1.40271   1.40452   1.40733   1.41028
 Alpha virt. eigenvalues --    1.41123   1.41163   1.41398   1.41701   1.41773
 Alpha virt. eigenvalues --    1.42088   1.42338   1.42519   1.42554   1.42664
 Alpha virt. eigenvalues --    1.43047   1.43294   1.43549   1.43606   1.43964
 Alpha virt. eigenvalues --    1.44375   1.44594   1.44959   1.45299   1.45404
 Alpha virt. eigenvalues --    1.45563   1.45961   1.46076   1.46616   1.47088
 Alpha virt. eigenvalues --    1.47709   1.48099   1.49588   1.49697   1.49866
 Alpha virt. eigenvalues --    1.50217   1.50550   1.51808   1.52291   1.52347
 Alpha virt. eigenvalues --    1.52485   1.53032   1.53314   1.53780   1.55150
 Alpha virt. eigenvalues --    1.55438   1.57433   1.58074   1.58127   1.58246
 Alpha virt. eigenvalues --    1.58548   1.58829   1.59013   1.59377   1.60039
 Alpha virt. eigenvalues --    1.60538   1.60880   1.61323   1.61603   1.61959
 Alpha virt. eigenvalues --    1.62032   1.62132   1.62724   1.63222   1.63946
 Alpha virt. eigenvalues --    1.64535   1.64724   1.64861   1.65370   1.65597
 Alpha virt. eigenvalues --    1.65904   1.66745   1.67993   1.68372   1.69569
 Alpha virt. eigenvalues --    1.70135   1.70658   1.71201   1.72384   1.73195
 Alpha virt. eigenvalues --    1.73242   1.73470   1.74075   1.74211   1.74861
 Alpha virt. eigenvalues --    1.75674   1.76348   1.77564   1.77739   1.77956
 Alpha virt. eigenvalues --    1.78415   1.78514   1.79040   1.79203   1.79586
 Alpha virt. eigenvalues --    1.80037   1.80965   1.81122   1.81562   1.81856
 Alpha virt. eigenvalues --    1.82116   1.82801   1.83495   1.83803   1.84110
 Alpha virt. eigenvalues --    1.84469   1.84771   1.84953   1.85432   1.85882
 Alpha virt. eigenvalues --    1.86045   1.86480   1.86666   1.87228   1.87625
 Alpha virt. eigenvalues --    1.88258   1.88308   1.88683   1.88891   1.89096
 Alpha virt. eigenvalues --    1.89499   1.90269   1.91296   1.92088   1.92630
 Alpha virt. eigenvalues --    1.93066   1.93165   1.93665   1.93763   1.94687
 Alpha virt. eigenvalues --    1.96049   1.96414   1.97639   1.97802   1.98279
 Alpha virt. eigenvalues --    1.98652   2.01598   2.01962   2.02087   2.02217
 Alpha virt. eigenvalues --    2.04751   2.05199   2.07027   2.07715   2.08306
 Alpha virt. eigenvalues --    2.10843   2.11068   2.11542   2.12652   2.13070
 Alpha virt. eigenvalues --    2.13599   2.14669   2.14851   2.15489   2.17474
 Alpha virt. eigenvalues --    2.18326   2.18603   2.19049   2.19215   2.20337
 Alpha virt. eigenvalues --    2.20621   2.20773   2.21668   2.24457   2.26228
 Alpha virt. eigenvalues --    2.26277   2.26848   2.27246   2.28566   2.29646
 Alpha virt. eigenvalues --    2.30034   2.30574   2.31335   2.32355   2.32716
 Alpha virt. eigenvalues --    2.33171   2.33622   2.33818   2.34457   2.34634
 Alpha virt. eigenvalues --    2.34856   2.38665   2.39458   2.41538   2.42805
 Alpha virt. eigenvalues --    2.43452   2.48007   2.49301   2.54406   2.64829
 Alpha virt. eigenvalues --    2.66742   2.67054   2.67069   2.67242   2.67918
 Alpha virt. eigenvalues --    2.68719   2.69136   2.69209   2.69258   2.69541
 Alpha virt. eigenvalues --    2.69582   2.69693   2.69795   2.69858   2.70050
 Alpha virt. eigenvalues --    2.70091   2.70094   2.70522   2.70645   2.70732
 Alpha virt. eigenvalues --    2.70767   2.70841   2.70910   2.71321   2.71562
 Alpha virt. eigenvalues --    2.71712   2.72028   2.72776   2.72800   2.72961
 Alpha virt. eigenvalues --    2.73159   2.73273   2.73495   2.73599   2.73660
 Alpha virt. eigenvalues --    2.73803   2.74211   2.74278   2.74311   2.75343
 Alpha virt. eigenvalues --    2.75434   2.75502   2.75606   2.75662   2.75672
 Alpha virt. eigenvalues --    2.75843   2.75876   2.76026   2.76074   2.76155
 Alpha virt. eigenvalues --    2.76235   2.76372   2.76474   2.76882   2.77378
 Alpha virt. eigenvalues --    2.77466   2.77661   2.78026   2.78284   2.78460
 Alpha virt. eigenvalues --    2.78634   2.79038   2.79352   2.79509   2.79616
 Alpha virt. eigenvalues --    2.79701   2.79798   2.80001   2.80246   2.81098
 Alpha virt. eigenvalues --    2.82135   2.82339   2.82489   2.82627   2.82717
 Alpha virt. eigenvalues --    2.82890   2.83044   2.83444   2.83852   2.84697
 Alpha virt. eigenvalues --    2.84751   2.85114   2.85331   2.85614   2.85719
 Alpha virt. eigenvalues --    2.85901   2.86067   2.86404   2.87179   2.87398
 Alpha virt. eigenvalues --    2.87624   2.88395   2.88567   2.88652   2.88759
 Alpha virt. eigenvalues --    2.88795   2.89360   2.89371   2.89405   2.90199
 Alpha virt. eigenvalues --    2.90959   2.91078   2.92070   2.92138   2.92225
 Alpha virt. eigenvalues --    2.92714   2.92784   2.92789   2.93065   2.93151
 Alpha virt. eigenvalues --    2.93648   2.94053   2.94445   2.94546   2.94732
 Alpha virt. eigenvalues --    2.94809   2.94853   2.95111   2.95310   2.95708
 Alpha virt. eigenvalues --    2.95840   2.96039   2.96083   2.96342   2.96430
 Alpha virt. eigenvalues --    2.96542   2.96713   2.96786   2.97192   2.97363
 Alpha virt. eigenvalues --    2.97520   2.98032   2.98180   2.98259   2.98962
 Alpha virt. eigenvalues --    2.99070   2.99126   2.99459   2.99592   2.99749
 Alpha virt. eigenvalues --    2.99905   3.00195   3.00376   3.00673   3.00776
 Alpha virt. eigenvalues --    3.01365   3.01545   3.01831   3.02242   3.02342
 Alpha virt. eigenvalues --    3.02554   3.02822   3.03294   3.03984   3.07090
 Alpha virt. eigenvalues --    3.08315   3.08655   3.08704   3.08750   3.09169
 Alpha virt. eigenvalues --    3.09763   3.09980   3.10062   3.10188   3.13957
 Alpha virt. eigenvalues --    3.14038   3.14098   3.14719   3.14959   3.15175
 Alpha virt. eigenvalues --    3.16485   3.16570   3.16837   3.22193   3.27713
 Alpha virt. eigenvalues --    3.29372   3.29584   3.30116   3.42953   3.43323
 Alpha virt. eigenvalues --    3.43878   3.44896   3.45571   3.46631   3.46762
 Alpha virt. eigenvalues --    3.47715   3.48112   3.48242   3.49136   3.49323
 Alpha virt. eigenvalues --    3.49741   3.53208   3.53934   3.54312   3.55532
 Alpha virt. eigenvalues --    3.55846   3.56379   3.56751   3.57229   3.57291
 Alpha virt. eigenvalues --    3.57464   3.57537   3.57690   3.58601   3.59507
 Alpha virt. eigenvalues --    3.59760   3.61073   3.61497   3.61718   3.62259
 Alpha virt. eigenvalues --    3.62725   3.63338   3.63707   3.64067   3.64504
 Alpha virt. eigenvalues --    3.73044   3.77267  68.66651  68.67642  68.68710
 Alpha virt. eigenvalues --   68.70762  68.74763  68.75894  68.83721  68.84680
 Alpha virt. eigenvalues --   68.85298  68.87831  68.88998  68.90106 576.25102
 Alpha virt. eigenvalues --  576.26072 576.27119 576.29122 576.33134 576.34241
 Alpha virt. eigenvalues --  576.41925 576.42866 576.43461 576.45903 576.47043
 Alpha virt. eigenvalues --  576.48139
  Beta  occ. eigenvalues -- -197.10763-129.99084-129.99082-129.99015-101.62412
  Beta  occ. eigenvalues --  -22.43192 -19.28529 -19.28515 -19.28457 -19.28446
  Beta  occ. eigenvalues --  -19.28401 -19.28383 -19.28370 -19.28357 -19.28343
  Beta  occ. eigenvalues --  -19.28279 -19.28244 -19.28168 -19.26965 -19.26948
  Beta  occ. eigenvalues --  -19.26936 -19.26892 -19.26891 -19.26885 -19.26862
  Beta  occ. eigenvalues --  -19.26859 -19.26846 -19.26845 -19.26832 -19.26830
  Beta  occ. eigenvalues --  -19.26826 -19.26824 -19.26810 -19.26805 -19.26801
  Beta  occ. eigenvalues --  -19.26784 -19.26780 -19.26779 -19.26770 -19.26726
  Beta  occ. eigenvalues --  -19.26675 -19.26653 -19.24717 -19.24682 -19.24649
  Beta  occ. eigenvalues --  -19.24631 -18.93683 -18.91525 -18.91396 -13.36493
  Beta  occ. eigenvalues --  -13.36482 -13.36419 -10.69419 -10.69415 -10.69415
  Beta  occ. eigenvalues --  -10.69411 -10.69406 -10.69401 -10.69347 -10.69343
  Beta  occ. eigenvalues --  -10.69341 -10.33362 -10.32400 -10.31967 -10.31154
  Beta  occ. eigenvalues --  -10.31144 -10.31124 -10.30530 -10.30485  -9.52869
  Beta  occ. eigenvalues --   -7.28705  -7.27272  -7.27269  -3.21100  -3.21090
  Beta  occ. eigenvalues --   -3.21068  -3.21036  -3.21025  -3.21010  -3.20999
  Beta  occ. eigenvalues --   -3.20992  -3.20991  -3.20856  -3.20844  -3.20822
  Beta  occ. eigenvalues --   -2.74704  -1.85341  -1.85285  -1.85275  -1.85242
  Beta  occ. eigenvalues --   -1.85141  -1.85073  -1.85058  -1.85035  -1.85018
  Beta  occ. eigenvalues --   -1.85010  -1.84994  -1.84940  -1.84392  -1.84279
  Beta  occ. eigenvalues --   -1.84269  -1.84251  -1.84217  -1.84204  -1.84148
  Beta  occ. eigenvalues --   -1.84131  -1.84103  -1.84095  -1.84064  -1.84056
  Beta  occ. eigenvalues --   -1.83953  -1.83914  -1.83883  -1.83878  -1.83859
  Beta  occ. eigenvalues --   -1.83826  -1.83799  -1.83790  -1.83782  -1.83688
  Beta  occ. eigenvalues --   -1.83679  -1.83667  -1.80592  -1.75978  -1.75696
  Beta  occ. eigenvalues --   -1.50196  -1.50190  -1.50131  -1.08604  -1.06979
  Beta  occ. eigenvalues --   -1.06938  -1.06893  -1.06013  -1.06004  -1.05981
  Beta  occ. eigenvalues --   -1.04587  -1.04576  -1.04568  -1.03974  -1.03970
  Beta  occ. eigenvalues --   -1.03635  -1.03332  -1.03296  -1.03283  -1.03048
  Beta  occ. eigenvalues --   -1.03024  -1.02246  -1.02213  -1.02207  -1.02101
  Beta  occ. eigenvalues --   -1.02023  -1.01990  -1.01913  -1.01895  -1.01792
  Beta  occ. eigenvalues --   -1.01772  -1.01753  -1.01618  -1.01584  -1.01563
  Beta  occ. eigenvalues --   -1.01316  -1.00796  -1.00770  -1.00729  -1.00725
  Beta  occ. eigenvalues --   -0.99858  -0.99800  -0.99757  -0.96470  -0.90039
  Beta  occ. eigenvalues --   -0.85641  -0.85638  -0.85586  -0.85497  -0.85485
  Beta  occ. eigenvalues --   -0.85484  -0.85454  -0.85428  -0.85415  -0.84576
  Beta  occ. eigenvalues --   -0.84371  -0.82711  -0.72223  -0.69776  -0.65371
  Beta  occ. eigenvalues --   -0.62323  -0.61713  -0.61653  -0.61626  -0.60882
  Beta  occ. eigenvalues --   -0.58979  -0.58958  -0.58949  -0.58805  -0.58774
  Beta  occ. eigenvalues --   -0.58743  -0.58732  -0.58683  -0.58554  -0.57339
  Beta  occ. eigenvalues --   -0.57184  -0.57131  -0.57039  -0.56928  -0.56502
  Beta  occ. eigenvalues --   -0.56422  -0.56378  -0.55822  -0.55611  -0.55346
  Beta  occ. eigenvalues --   -0.55337  -0.55321  -0.54637  -0.54178  -0.54148
  Beta  occ. eigenvalues --   -0.53987  -0.53655  -0.53611  -0.53574  -0.52859
  Beta  occ. eigenvalues --   -0.52664  -0.52599  -0.52481  -0.52459  -0.51482
  Beta  occ. eigenvalues --   -0.51458  -0.51449  -0.51327  -0.51265  -0.51028
  Beta  occ. eigenvalues --   -0.50568  -0.50476  -0.50470  -0.50343  -0.50249
  Beta  occ. eigenvalues --   -0.50183  -0.50057  -0.50046  -0.49989  -0.49722
  Beta  occ. eigenvalues --   -0.49656  -0.49614  -0.49507  -0.49489  -0.49297
  Beta  occ. eigenvalues --   -0.49232  -0.49203  -0.49089  -0.49052  -0.48969
  Beta  occ. eigenvalues --   -0.48722  -0.48562  -0.48542  -0.48477  -0.47905
  Beta  occ. eigenvalues --   -0.47667  -0.47621  -0.46064  -0.45910  -0.45880
  Beta  occ. eigenvalues --   -0.45815  -0.45680  -0.45578  -0.45228  -0.45169
  Beta  occ. eigenvalues --   -0.45152  -0.45058  -0.44840  -0.44645  -0.44477
  Beta  occ. eigenvalues --   -0.44456  -0.44437  -0.44283  -0.44231  -0.44206
  Beta  occ. eigenvalues --   -0.43428  -0.43275  -0.42514  -0.42474  -0.42431
  Beta  occ. eigenvalues --   -0.42303  -0.42253  -0.42139  -0.42129  -0.41640
  Beta  occ. eigenvalues --   -0.41613  -0.41564  -0.41436  -0.41051  -0.40963
  Beta  occ. eigenvalues --   -0.40770  -0.40732  -0.40705  -0.40406  -0.40392
  Beta  occ. eigenvalues --   -0.40351  -0.40183  -0.40171  -0.40156  -0.39825
  Beta  occ. eigenvalues --   -0.39653  -0.39361  -0.39182  -0.39115  -0.39111
  Beta  occ. eigenvalues --   -0.38925  -0.38888  -0.38835  -0.38742  -0.38707
  Beta  occ. eigenvalues --   -0.38665  -0.38325  -0.38302  -0.38267  -0.37620
  Beta  occ. eigenvalues --   -0.37220  -0.37193  -0.35587  -0.35545  -0.33986
  Beta  occ. eigenvalues --   -0.30873
  Beta virt. eigenvalues --   -0.06280  -0.06230  -0.04794  -0.04758  -0.04669
  Beta virt. eigenvalues --   -0.01524  -0.01407  -0.01358  -0.01109  -0.00923
  Beta virt. eigenvalues --   -0.00897  -0.00859  -0.00155  -0.00081  -0.00047
  Beta virt. eigenvalues --    0.00684   0.00719   0.00747   0.00912   0.01012
  Beta virt. eigenvalues --    0.01549   0.01852   0.01866   0.01905   0.02498
  Beta virt. eigenvalues --    0.02775   0.02837   0.02867   0.03509   0.03678
  Beta virt. eigenvalues --    0.03780   0.04023   0.04044   0.04310   0.04334
  Beta virt. eigenvalues --    0.04373   0.04395   0.04601   0.05033   0.05105
  Beta virt. eigenvalues --    0.05563   0.06470   0.07225   0.08485   0.08549
  Beta virt. eigenvalues --    0.08603   0.08653   0.09340   0.09457   0.09606
  Beta virt. eigenvalues --    0.09834   0.09902   0.10033   0.10043   0.10096
  Beta virt. eigenvalues --    0.10143   0.10345   0.10546   0.10886   0.10963
  Beta virt. eigenvalues --    0.11429   0.11597   0.11664   0.11938   0.12192
  Beta virt. eigenvalues --    0.12364   0.12444   0.12500   0.12539   0.13315
  Beta virt. eigenvalues --    0.13414   0.13596   0.14054   0.14279   0.14801
  Beta virt. eigenvalues --    0.14953   0.15043   0.15218   0.15352   0.15885
  Beta virt. eigenvalues --    0.16078   0.16720   0.17056   0.17680   0.17902
  Beta virt. eigenvalues --    0.18298   0.18423   0.18608   0.18760   0.18939
  Beta virt. eigenvalues --    0.19307   0.19393   0.19510   0.19536   0.19633
  Beta virt. eigenvalues --    0.19906   0.19996   0.20397   0.20660   0.20940
  Beta virt. eigenvalues --    0.21117   0.21298   0.21314   0.21566   0.21607
  Beta virt. eigenvalues --    0.21694   0.21917   0.21963   0.22171   0.22195
  Beta virt. eigenvalues --    0.22365   0.22742   0.23099   0.23173   0.23292
  Beta virt. eigenvalues --    0.23328   0.23511   0.23723   0.23966   0.24231
  Beta virt. eigenvalues --    0.24297   0.24612   0.24697   0.24984   0.25078
  Beta virt. eigenvalues --    0.25347   0.25527   0.25545   0.26130   0.26759
  Beta virt. eigenvalues --    0.26841   0.27115   0.27310   0.27645   0.27875
  Beta virt. eigenvalues --    0.27963   0.28454   0.28688   0.28762   0.29205
  Beta virt. eigenvalues --    0.29269   0.29317   0.29392   0.29547   0.29741
  Beta virt. eigenvalues --    0.30077   0.30397   0.30721   0.31279   0.31530
  Beta virt. eigenvalues --    0.31831   0.32215   0.32318   0.32779   0.33139
  Beta virt. eigenvalues --    0.33569   0.34401   0.35197   0.36977   0.37025
  Beta virt. eigenvalues --    0.38186   0.38743   0.38919   0.39350   0.39539
  Beta virt. eigenvalues --    0.40279   0.41363   0.41766   0.41906   0.42005
  Beta virt. eigenvalues --    0.42203   0.42475   0.42705   0.43417   0.44049
  Beta virt. eigenvalues --    0.44216   0.44470   0.44867   0.45257   0.45494
  Beta virt. eigenvalues --    0.45666   0.45788   0.45867   0.46449   0.46669
  Beta virt. eigenvalues --    0.46921   0.47234   0.47798   0.47901   0.48182
  Beta virt. eigenvalues --    0.48301   0.48326   0.48750   0.49005   0.49085
  Beta virt. eigenvalues --    0.49459   0.49785   0.49864   0.49912   0.50014
  Beta virt. eigenvalues --    0.50116   0.50359   0.50501   0.50672   0.50730
  Beta virt. eigenvalues --    0.51203   0.51279   0.51626   0.51746   0.51940
  Beta virt. eigenvalues --    0.52432   0.52635   0.52815   0.52972   0.53268
  Beta virt. eigenvalues --    0.53743   0.54026   0.54234   0.54463   0.54622
  Beta virt. eigenvalues --    0.54722   0.55400   0.55996   0.56053   0.56465
  Beta virt. eigenvalues --    0.56585   0.56834   0.57046   0.57132   0.57562
  Beta virt. eigenvalues --    0.57987   0.58742   0.58841   0.59003   0.59473
  Beta virt. eigenvalues --    0.59909   0.60541   0.60703   0.61000   0.61608
  Beta virt. eigenvalues --    0.61931   0.62746   0.63526   0.64149   0.64596
  Beta virt. eigenvalues --    0.65032   0.65234   0.66402   0.66580   0.66649
  Beta virt. eigenvalues --    0.67685   0.68199   0.68330   0.68751   0.69044
  Beta virt. eigenvalues --    0.69610   0.70103   0.70639   0.71333   0.71683
  Beta virt. eigenvalues --    0.71926   0.72290   0.72624   0.72802   0.73136
  Beta virt. eigenvalues --    0.73213   0.73374   0.73517   0.73645   0.73703
  Beta virt. eigenvalues --    0.73960   0.74112   0.74894   0.75469   0.75677
  Beta virt. eigenvalues --    0.76055   0.76889   0.76991   0.77927   0.78181
  Beta virt. eigenvalues --    0.78914   0.79317   0.80001   0.80582   0.80675
  Beta virt. eigenvalues --    0.81082   0.81187   0.81948   0.82078   0.82258
  Beta virt. eigenvalues --    0.83002   0.83314   0.83840   0.83855   0.84283
  Beta virt. eigenvalues --    0.84526   0.84900   0.85389   0.86426   0.87053
  Beta virt. eigenvalues --    0.87430   0.88105   0.88365   0.89429   0.89572
  Beta virt. eigenvalues --    0.89831   0.90263   0.90387   0.90850   0.90994
  Beta virt. eigenvalues --    0.91642   0.91748   0.91961   0.92291   0.92429
  Beta virt. eigenvalues --    0.92591   0.93152   0.93331   0.93413   0.93717
  Beta virt. eigenvalues --    0.94929   0.95167   0.95452   0.95794   0.96633
  Beta virt. eigenvalues --    0.97059   0.97278   0.97758   0.97938   0.98475
  Beta virt. eigenvalues --    0.99197   0.99411   0.99619   0.99806   1.00192
  Beta virt. eigenvalues --    1.00363   1.00473   1.00668   1.00835   1.01051
  Beta virt. eigenvalues --    1.01208   1.01296   1.01774   1.02200   1.02561
  Beta virt. eigenvalues --    1.02607   1.02767   1.03406   1.03709   1.03877
  Beta virt. eigenvalues --    1.04028   1.04232   1.04740   1.04877   1.05022
  Beta virt. eigenvalues --    1.05208   1.05453   1.05603   1.05947   1.06617
  Beta virt. eigenvalues --    1.07016   1.07058   1.07334   1.07508   1.07638
  Beta virt. eigenvalues --    1.07821   1.07911   1.08368   1.08751   1.08878
  Beta virt. eigenvalues --    1.09024   1.09348   1.09487   1.10205   1.10824
  Beta virt. eigenvalues --    1.11104   1.11300   1.11901   1.12146   1.12310
  Beta virt. eigenvalues --    1.12467   1.12834   1.13066   1.13108   1.13258
  Beta virt. eigenvalues --    1.13468   1.13666   1.13799   1.14032   1.14173
  Beta virt. eigenvalues --    1.14487   1.14771   1.15200   1.15382   1.16016
  Beta virt. eigenvalues --    1.16349   1.16843   1.17455   1.17820   1.18459
  Beta virt. eigenvalues --    1.18954   1.19647   1.19812   1.20030   1.20342
  Beta virt. eigenvalues --    1.20996   1.22203   1.22660   1.22957   1.22994
  Beta virt. eigenvalues --    1.23080   1.23209   1.23593   1.23719   1.24552
  Beta virt. eigenvalues --    1.25456   1.25846   1.27146   1.27526   1.27671
  Beta virt. eigenvalues --    1.28278   1.29016   1.29577   1.29972   1.30320
  Beta virt. eigenvalues --    1.30537   1.30794   1.30846   1.31084   1.31811
  Beta virt. eigenvalues --    1.31973   1.32104   1.32171   1.32266   1.32356
  Beta virt. eigenvalues --    1.32553   1.32705   1.33059   1.33183   1.34158
  Beta virt. eigenvalues --    1.34656   1.34779   1.34935   1.35459   1.35532
  Beta virt. eigenvalues --    1.35671   1.35857   1.36024   1.36324   1.36474
  Beta virt. eigenvalues --    1.36791   1.36894   1.37698   1.37895   1.37954
  Beta virt. eigenvalues --    1.38221   1.38404   1.38745   1.38756   1.38958
  Beta virt. eigenvalues --    1.39021   1.39298   1.39490   1.39639   1.39716
  Beta virt. eigenvalues --    1.40141   1.40242   1.40471   1.40756   1.41061
  Beta virt. eigenvalues --    1.41132   1.41180   1.41401   1.41699   1.41762
  Beta virt. eigenvalues --    1.42093   1.42327   1.42521   1.42554   1.42657
  Beta virt. eigenvalues --    1.43059   1.43296   1.43558   1.43617   1.43975
  Beta virt. eigenvalues --    1.44381   1.44605   1.44901   1.45310   1.45415
  Beta virt. eigenvalues --    1.45564   1.45944   1.46066   1.46686   1.47083
  Beta virt. eigenvalues --    1.47720   1.48105   1.49599   1.49708   1.49876
  Beta virt. eigenvalues --    1.50230   1.50563   1.51831   1.52298   1.52365
  Beta virt. eigenvalues --    1.52496   1.53048   1.53331   1.53803   1.55172
  Beta virt. eigenvalues --    1.55445   1.57438   1.58102   1.58148   1.58263
  Beta virt. eigenvalues --    1.58582   1.58849   1.59038   1.59414   1.60051
  Beta virt. eigenvalues --    1.60554   1.60900   1.61337   1.61611   1.61962
  Beta virt. eigenvalues --    1.62031   1.62144   1.62735   1.63220   1.64002
  Beta virt. eigenvalues --    1.64677   1.64860   1.64979   1.65512   1.65631
  Beta virt. eigenvalues --    1.65993   1.66820   1.68153   1.68443   1.69617
  Beta virt. eigenvalues --    1.70172   1.70693   1.71184   1.72193   1.73200
  Beta virt. eigenvalues --    1.73238   1.73493   1.74078   1.74247   1.74854
  Beta virt. eigenvalues --    1.75628   1.76275   1.77545   1.77723   1.77866
  Beta virt. eigenvalues --    1.78243   1.78486   1.79045   1.79195   1.79594
  Beta virt. eigenvalues --    1.79968   1.80976   1.81115   1.81561   1.81811
  Beta virt. eigenvalues --    1.82091   1.82701   1.83486   1.83828   1.84083
  Beta virt. eigenvalues --    1.84391   1.84742   1.84919   1.85444   1.85860
  Beta virt. eigenvalues --    1.86033   1.86516   1.86673   1.87229   1.87625
  Beta virt. eigenvalues --    1.88106   1.88258   1.88587   1.88785   1.89098
  Beta virt. eigenvalues --    1.89517   1.90292   1.91303   1.91958   1.92628
  Beta virt. eigenvalues --    1.93109   1.93144   1.93689   1.93746   1.94698
  Beta virt. eigenvalues --    1.96079   1.96330   1.97663   1.97848   1.98358
  Beta virt. eigenvalues --    1.98682   2.01467   2.02012   2.02103   2.02251
  Beta virt. eigenvalues --    2.04557   2.05078   2.06940   2.07318   2.08257
  Beta virt. eigenvalues --    2.10855   2.11085   2.11558   2.11998   2.13027
  Beta virt. eigenvalues --    2.13620   2.14682   2.14868   2.15543   2.17498
  Beta virt. eigenvalues --    2.18079   2.18500   2.19065   2.19206   2.20306
  Beta virt. eigenvalues --    2.20742   2.20952   2.21799   2.24382   2.26288
  Beta virt. eigenvalues --    2.26587   2.27064   2.27643   2.29320   2.29928
  Beta virt. eigenvalues --    2.30357   2.30814   2.31213   2.32730   2.33142
  Beta virt. eigenvalues --    2.33517   2.34133   2.34338   2.34910   2.35698
  Beta virt. eigenvalues --    2.36250   2.38358   2.39285   2.41424   2.42659
  Beta virt. eigenvalues --    2.43513   2.47496   2.49019   2.53779   2.64514
  Beta virt. eigenvalues --    2.66465   2.67051   2.67065   2.67204   2.67916
  Beta virt. eigenvalues --    2.68561   2.69136   2.69206   2.69247   2.69542
  Beta virt. eigenvalues --    2.69582   2.69695   2.69798   2.69859   2.70062
  Beta virt. eigenvalues --    2.70098   2.70114   2.70426   2.70669   2.70747
  Beta virt. eigenvalues --    2.70771   2.70858   2.70873   2.71311   2.71565
  Beta virt. eigenvalues --    2.71715   2.72028   2.72779   2.72804   2.72965
  Beta virt. eigenvalues --    2.73182   2.73294   2.73451   2.73507   2.73609
  Beta virt. eigenvalues --    2.73759   2.74219   2.74275   2.74312   2.75353
  Beta virt. eigenvalues --    2.75442   2.75506   2.75613   2.75667   2.75678
  Beta virt. eigenvalues --    2.75853   2.75885   2.76030   2.76081   2.76161
  Beta virt. eigenvalues --    2.76241   2.76377   2.76479   2.76885   2.77397
  Beta virt. eigenvalues --    2.77486   2.77697   2.78051   2.78311   2.78472
  Beta virt. eigenvalues --    2.78655   2.79045   2.79387   2.79537   2.79595
  Beta virt. eigenvalues --    2.79703   2.79799   2.79972   2.80225   2.81101
  Beta virt. eigenvalues --    2.82197   2.82351   2.82534   2.82645   2.82719
  Beta virt. eigenvalues --    2.82906   2.83084   2.83437   2.83843   2.84711
  Beta virt. eigenvalues --    2.84767   2.85138   2.85307   2.85461   2.85727
  Beta virt. eigenvalues --    2.85907   2.86063   2.86409   2.87205   2.87428
  Beta virt. eigenvalues --    2.87654   2.88401   2.88568   2.88657   2.88762
  Beta virt. eigenvalues --    2.88798   2.89383   2.89398   2.89407   2.90203
  Beta virt. eigenvalues --    2.90974   2.91101   2.92080   2.92145   2.92233
  Beta virt. eigenvalues --    2.92729   2.92790   2.92806   2.93094   2.93185
  Beta virt. eigenvalues --    2.93676   2.94052   2.94456   2.94544   2.94640
  Beta virt. eigenvalues --    2.94799   2.94871   2.95094   2.95303   2.95718
  Beta virt. eigenvalues --    2.95854   2.96063   2.96099   2.96347   2.96440
  Beta virt. eigenvalues --    2.96529   2.96664   2.96777   2.97203   2.97373
  Beta virt. eigenvalues --    2.97525   2.98049   2.98196   2.98267   2.98846
  Beta virt. eigenvalues --    2.99017   2.99087   2.99478   2.99625   2.99789
  Beta virt. eigenvalues --    2.99944   3.00212   3.00451   3.00731   3.00838
  Beta virt. eigenvalues --    3.01387   3.01558   3.01839   3.02260   3.02378
  Beta virt. eigenvalues --    3.02569   3.02840   3.03310   3.03996   3.07095
  Beta virt. eigenvalues --    3.08473   3.08593   3.08727   3.08790   3.09188
  Beta virt. eigenvalues --    3.09899   3.10323   3.10363   3.11031   3.13968
  Beta virt. eigenvalues --    3.14045   3.14105   3.14698   3.14868   3.15185
  Beta virt. eigenvalues --    3.16496   3.16583   3.16910   3.22122   3.28198
  Beta virt. eigenvalues --    3.29959   3.30518   3.30775   3.42957   3.43329
  Beta virt. eigenvalues --    3.43880   3.44899   3.45368   3.46636   3.46771
  Beta virt. eigenvalues --    3.47720   3.48114   3.48245   3.49138   3.49325
  Beta virt. eigenvalues --    3.49744   3.53214   3.53955   3.54330   3.55538
  Beta virt. eigenvalues --    3.55853   3.56392   3.56762   3.57242   3.57310
  Beta virt. eigenvalues --    3.57497   3.57554   3.57727   3.58613   3.59510
  Beta virt. eigenvalues --    3.59764   3.61093   3.61503   3.61723   3.62263
  Beta virt. eigenvalues --    3.62729   3.63343   3.63710   3.64071   3.64510
  Beta virt. eigenvalues --    3.72971   3.77498  68.66653  68.67643  68.68711
  Beta virt. eigenvalues --   68.70763  68.74764  68.75896  68.83723  68.84681
  Beta virt. eigenvalues --   68.85300  68.87833  68.88999  68.90108 576.25132
  Beta virt. eigenvalues --  576.26098 576.27145 576.29149 576.33152 576.34282
  Beta virt. eigenvalues --  576.41956 576.42886 576.43495 576.45936 576.47064
  Beta virt. eigenvalues --  576.48172
          Condensed to atoms (all electrons):
          Atomic-Atomic Spin Densities.
 Mulliken charges and spin densities:
               1          2
     1  Cl  -0.355117  -0.600193
     2  C   -0.035973  -0.098928
     3  C    0.011742   0.060209
     4  C   -0.035112  -0.094590
     5  C   -0.031926   0.060116
     6  C    0.009126  -0.118608
     7  C   -0.047276   0.060435
     8  H    0.050271   0.004271
     9  H    0.051119   0.004052
    10  H    0.056272  -0.002145
    11  H    0.057545   0.005198
    12  H    0.054427  -0.002120
    13  C    0.006389  -0.269449
    14  C   -0.039294  -0.017072
    15  H    0.076705   0.011010
    16  H    0.094854   0.000966
    17  H    0.089697  -0.001636
    18  O   -0.671571  -0.000563
    19  O   -0.669946  -0.000523
    20  O   -0.665977  -0.001519
    21  O   -0.672172  -0.000541
    22  W    1.714461   0.000353
    23  W    1.658604   0.000482
    24  W    1.670896   0.000162
    25  W    1.680045   0.000221
    26  W    1.661388   0.002719
    27  W    1.708460   0.002449
    28  W    1.608231   0.003326
    29  W    1.670362   0.002803
    30  O   -0.350028  -0.000524
    31  O   -0.394187  -0.000569
    32  O   -0.395610  -0.000615
    33  O   -0.387395  -0.000567
    34  O   -0.670855  -0.000288
    35  O   -0.677547  -0.000022
    36  O   -0.669398  -0.000129
    37  O   -0.671668  -0.000193
    38  O   -0.397118   0.002122
    39  O   -0.395451   0.002167
    40  O   -0.340816   0.000420
    41  O   -0.394996   0.002149
    42  O   -0.677149   0.000047
    43  O   -0.671786   0.000150
    44  O   -0.667311   0.000267
    45  O   -0.673870   0.000095
    46  O   -0.397212   0.002276
    47  O   -0.352076   0.002140
    48  O   -0.393669   0.001781
    49  O   -0.393128   0.002295
    50  W    1.657193   0.002842
    51  W    1.663050   0.002742
    52  W    1.676330   0.003907
    53  W    1.669041   0.002692
    54  O   -0.722777   0.000098
    55  O   -0.704821   0.000006
    56  O   -0.721779   0.000139
    57  O   -0.720739   0.000068
    58  O   -0.702175   0.000078
    59  O   -0.722847   0.000159
    60  O   -0.722462   0.000213
    61  O   -0.717282   0.000201
    62  O   -0.722618  -0.000181
    63  O   -0.704814  -0.000056
    64  O   -0.724535  -0.000195
    65  O   -0.723755  -0.000200
    66  O   -0.883443   0.005280
    67  O   -0.883570   0.007296
    68  O   -0.880869   0.007256
    69  O   -0.888412   0.006556
    70  K    0.850838   0.000194
    71  K    0.848171   0.000221
    72  K    0.847657   0.000217
    73  V    1.199659   0.936575
 Sum of Mulliken charges =  -1.00000   0.00000
 Mulliken charges and spin densities with hydrogens summed into heavy atoms:
               1          2
     1  Cl  -0.355117  -0.600193
     2  C    0.014298  -0.094657
     3  C    0.011742   0.060209
     4  C    0.016007  -0.090539
     5  C    0.024346   0.057971
     6  C    0.066671  -0.113409
     7  C    0.007150   0.058315
    13  C    0.083095  -0.258439
    14  C    0.145258  -0.017742
    18  O   -0.671571  -0.000563
    19  O   -0.669946  -0.000523
    20  O   -0.665977  -0.001519
    21  O   -0.672172  -0.000541
    22  W    1.714461   0.000353
    23  W    1.658604   0.000482
    24  W    1.670896   0.000162
    25  W    1.680045   0.000221
    26  W    1.661388   0.002719
    27  W    1.708460   0.002449
    28  W    1.608231   0.003326
    29  W    1.670362   0.002803
    30  O   -0.350028  -0.000524
    31  O   -0.394187  -0.000569
    32  O   -0.395610  -0.000615
    33  O   -0.387395  -0.000567
    34  O   -0.670855  -0.000288
    35  O   -0.677547  -0.000022
    36  O   -0.669398  -0.000129
    37  O   -0.671668  -0.000193
    38  O   -0.397118   0.002122
    39  O   -0.395451   0.002167
    40  O   -0.340816   0.000420
    41  O   -0.394996   0.002149
    42  O   -0.677149   0.000047
    43  O   -0.671786   0.000150
    44  O   -0.667311   0.000267
    45  O   -0.673870   0.000095
    46  O   -0.397212   0.002276
    47  O   -0.352076   0.002140
    48  O   -0.393669   0.001781
    49  O   -0.393128   0.002295
    50  W    1.657193   0.002842
    51  W    1.663050   0.002742
    52  W    1.676330   0.003907
    53  W    1.669041   0.002692
    54  O   -0.722777   0.000098
    55  O   -0.704821   0.000006
    56  O   -0.721779   0.000139
    57  O   -0.720739   0.000068
    58  O   -0.702175   0.000078
    59  O   -0.722847   0.000159
    60  O   -0.722462   0.000213
    61  O   -0.717282   0.000201
    62  O   -0.722618  -0.000181
    63  O   -0.704814  -0.000056
    64  O   -0.724535  -0.000195
    65  O   -0.723755  -0.000200
    66  O   -0.883443   0.005280
    67  O   -0.883570   0.007296
    68  O   -0.880869   0.007256
    69  O   -0.888412   0.006556
    70  K    0.850838   0.000194
    71  K    0.848171   0.000221
    72  K    0.847657   0.000217
    73  V    1.199659   0.936575
 Electronic spatial extent (au):  <R**2>=         316850.4156
 Charge=             -1.0000 electrons
 Dipole moment (field-independent basis, Debye):
    X=             27.8712    Y=            -13.7863    Z=            -30.8191  Tot=             43.7799
 Quadrupole moment (field-independent basis, Debye-Ang):
   XX=           -757.3574   YY=           -711.6239   ZZ=           -784.3651
   XY=            127.0875   XZ=            172.5296   YZ=            -93.9200
 Traceless Quadrupole moment (field-independent basis, Debye-Ang):
   XX=             -6.2419   YY=             39.4916   ZZ=            -33.2497
   XY=            127.0875   XZ=            172.5296   YZ=            -93.9200
 Octapole moment (field-independent basis, Debye-Ang**2):
  XXX=          10113.7883  YYY=            844.6104  ZZZ=         -17467.8421  XYY=           4138.0940
  XXY=           -593.0187  XXZ=          -6008.0353  XZZ=           4012.7448  YZZ=           -125.9474
  YYZ=          -7110.4085  XYZ=           1394.6621
 Hexadecapole moment (field-independent basis, Debye-Ang**3):
 XXXX=        -123910.8956 YYYY=         -41003.8232 ZZZZ=        -326481.3393 XXXY=           7572.5880
 XXXZ=          85695.8549 YYYX=           3209.9670 YYYZ=           7089.6175 ZZZX=          89569.0385
 ZZZY=           7974.3914 XXYY=         -36104.6437 XXZZ=         -69352.7518 YYZZ=         -79036.8124
 XXYZ=         -10261.6804 YYXZ=          40875.7677 ZZXY=          14292.0369
 N-N= 2.096655741476D+04 E-N=-5.904251077738D+04  KE= 6.765666442254D+03
                          Isotropic Fermi Contact Couplings
        Atom                 a.u.       MegaHertz       Gauss      10(-4) cm-1
     1  Cl(35)            -0.09769     -21.41589      -7.64172      -7.14357
     2  C(13)             -0.01573      -8.83943      -3.15413      -2.94852
     3  C(13)              0.01909      10.72865       3.82825       3.57869
     4  C(13)             -0.01520      -8.54188      -3.04795      -2.84926
     5  C(13)              0.01353       7.60748       2.71454       2.53758
     6  C(13)             -0.01923     -10.81057      -3.85748      -3.60602
     7  C(13)              0.01357       7.62924       2.72230       2.54484
     8  H(1)               0.00135       3.02216       1.07838       1.00808
     9  H(1)               0.00131       2.92700       1.04442       0.97634
    10  H(1)              -0.00064      -1.41950      -0.50651      -0.47349
    11  H(1)               0.00158       3.53073       1.25985       1.17773
    12  H(1)              -0.00062      -1.39365      -0.49729      -0.46487
    13  C(13)             -0.03795     -21.33249      -7.61196      -7.11575
    14  C(13)             -0.02544     -14.30040      -5.10274      -4.77010
    15  H(1)               0.00345       7.72163       2.75527       2.57566
    16  H(1)               0.00050       1.12839       0.40264       0.37639
    17  H(1)              -0.00129      -2.89379      -1.03258      -0.96526
    18  O(17)             -0.00044       0.13487       0.04813       0.04499
    19  O(17)             -0.00042       0.12649       0.04514       0.04219
    20  O(17)             -0.00146       0.44309       0.15811       0.14780
    21  O(17)             -0.00044       0.13234       0.04722       0.04414
    22  W(183)             0.00000       0.00000       0.00000       0.00000
    23  W(183)             0.00000       0.00000       0.00000       0.00000
    24  W(183)             0.00000       0.00000       0.00000       0.00000
    25  W(183)             0.00000       0.00000       0.00000       0.00000
    26  W(183)             0.00000       0.00000       0.00000       0.00000
    27  W(183)             0.00000       0.00000       0.00000       0.00000
    28  W(183)             0.00000       0.00000       0.00000       0.00000
    29  W(183)             0.00000       0.00000       0.00000       0.00000
    30  O(17)             -0.00020       0.06040       0.02155       0.02015
    31  O(17)             -0.00024       0.07323       0.02613       0.02443
    32  O(17)             -0.00026       0.07922       0.02827       0.02642
    33  O(17)             -0.00023       0.07075       0.02524       0.02360
    34  O(17)             -0.00003       0.00773       0.00276       0.00258
    35  O(17)              0.00017      -0.05228      -0.01865      -0.01744
    36  O(17)              0.00013      -0.04088      -0.01459      -0.01364
    37  O(17)              0.00007      -0.02108      -0.00752      -0.00703
    38  O(17)              0.00197      -0.59685      -0.21297      -0.19909
    39  O(17)              0.00195      -0.59121      -0.21096      -0.19721
    40  O(17)             -0.00432       1.30962       0.46731       0.43684
    41  O(17)              0.00194      -0.58668      -0.20934      -0.19569
    42  O(17)              0.00024      -0.07236      -0.02582      -0.02414
    43  O(17)              0.00031      -0.09446      -0.03371      -0.03151
    44  O(17)              0.00044      -0.13437      -0.04795      -0.04482
    45  O(17)              0.00028      -0.08446      -0.03014      -0.02817
    46  O(17)              0.00218      -0.66155      -0.23606      -0.22067
    47  O(17)              0.00193      -0.58556      -0.20894      -0.19532
    48  O(17)              0.00037      -0.11222      -0.04004      -0.03743
    49  O(17)              0.00216      -0.65460      -0.23358      -0.21835
    50  W(183)             0.00000       0.00000       0.00000       0.00000
    51  W(183)             0.00000       0.00000       0.00000       0.00000
    52  W(183)             0.00000       0.00000       0.00000       0.00000
    53  W(183)             0.00000       0.00000       0.00000       0.00000
    54  O(17)              0.00013      -0.04019      -0.01434      -0.01341
    55  O(17)              0.00001      -0.00242      -0.00086      -0.00081
    56  O(17)              0.00020      -0.06033      -0.02153      -0.02012
    57  O(17)              0.00005      -0.01462      -0.00522      -0.00488
    58  O(17)              0.00017      -0.05274      -0.01882      -0.01759
    59  O(17)              0.00029      -0.08652      -0.03087      -0.02886
    60  O(17)              0.00035      -0.10656      -0.03802      -0.03554
    61  O(17)              0.00034      -0.10449      -0.03728      -0.03485
    62  O(17)             -0.00027       0.08121       0.02898       0.02709
    63  O(17)             -0.00020       0.06053       0.02160       0.02019
    64  O(17)             -0.00029       0.08775       0.03131       0.02927
    65  O(17)             -0.00030       0.09058       0.03232       0.03021
    66  O(17)             -0.00808       2.44816       0.87356       0.81662
    67  O(17)             -0.00696       2.10814       0.75224       0.70320
    68  O(17)             -0.00703       2.13067       0.76028       0.71072
    69  O(17)             -0.00752       2.27986       0.81351       0.76048
    70  K(39)             -0.00002      -0.00198      -0.00071      -0.00066
    71  K(39)             -0.00002      -0.00188      -0.00067      -0.00063
    72  K(39)             -0.00002      -0.00235      -0.00084      -0.00079
    73  V(51)              0.07048      41.50554      14.81021      13.84476
 --------------------------------------------------------
       Center         ----  Spin Dipole Couplings  ----
                      3XX-RR        3YY-RR        3ZZ-RR
 --------------------------------------------------------
     1   Atom        1.255197     -2.575925      1.320728
     2   Atom       -0.018109     -0.013686      0.031795
     3   Atom        0.005717      0.003159     -0.008876
     4   Atom       -0.016457     -0.019547      0.036004
     5   Atom        0.012343      0.005866     -0.018209
     6   Atom       -0.024750     -0.014398      0.039148
     7   Atom        0.012076      0.004842     -0.016918
     8   Atom       -0.001679     -0.002399      0.004078
     9   Atom       -0.000056      0.000525     -0.000469
    10   Atom        0.001505      0.000705     -0.002210
    11   Atom        0.004502      0.000325     -0.004827
    12   Atom        0.000737     -0.000804      0.000067
    13   Atom       -0.129700      0.027535      0.102165
    14   Atom        0.010299     -0.045134      0.034834
    15   Atom       -0.002703      0.004256     -0.001553
    16   Atom        0.008974      0.000102     -0.009076
    17   Atom       -0.011852      0.002278      0.009575
    18   Atom        0.001354     -0.001307     -0.000047
    19   Atom        0.001852     -0.001770     -0.000083
    20   Atom       -0.001622     -0.000512      0.002134
    21   Atom       -0.000660      0.000701     -0.000041
    22   Atom       -0.001982      0.000603      0.001379
    23   Atom       -0.001820      0.000651      0.001169
    24   Atom       -0.002394      0.001042      0.001352
    25   Atom       -0.002065      0.000598      0.001467
    26   Atom        0.000356     -0.002240      0.001884
    27   Atom        0.000500     -0.002455      0.001954
    28   Atom        0.000875     -0.003077      0.002202
    29   Atom        0.000647     -0.002690      0.002043
    30   Atom       -0.000140      0.000317     -0.000177
    31   Atom        0.000036      0.000053     -0.000089
    32   Atom       -0.000492      0.000617     -0.000125
    33   Atom       -0.000148      0.000254     -0.000106
    34   Atom       -0.000051     -0.002016      0.002067
    35   Atom       -0.000330     -0.002682      0.003011
    36   Atom       -0.002291     -0.000486      0.002778
    37   Atom       -0.001977     -0.000631      0.002608
    38   Atom        0.006041     -0.002901     -0.003141
    39   Atom        0.006468     -0.003261     -0.003208
    40   Atom       -0.009277      0.009298     -0.000021
    41   Atom       -0.004565      0.008060     -0.003495
    42   Atom        0.002668     -0.001127     -0.001540
    43   Atom        0.002982     -0.001155     -0.001827
    44   Atom       -0.004430      0.005719     -0.001289
    45   Atom       -0.003332      0.004868     -0.001536
    46   Atom       -0.000679      0.000699     -0.000020
    47   Atom        0.001681     -0.002828      0.001146
    48   Atom        0.005401     -0.007667      0.002266
    49   Atom        0.004739     -0.004866      0.000127
    50   Atom        0.006145     -0.002804     -0.003341
    51   Atom        0.006488     -0.003187     -0.003301
    52   Atom       -0.002310      0.005041     -0.002731
    53   Atom       -0.002152      0.005558     -0.003406
    54   Atom       -0.003152     -0.001649      0.004801
    55   Atom       -0.002948     -0.001876      0.004824
    56   Atom       -0.001118     -0.004408      0.005527
    57   Atom       -0.001169     -0.003822      0.004991
    58   Atom       -0.004012      0.006414     -0.002402
    59   Atom       -0.003904      0.006693     -0.002789
    60   Atom        0.002753     -0.000064     -0.002689
    61   Atom        0.003004     -0.000394     -0.002610
    62   Atom        0.000779      0.001077     -0.001856
    63   Atom        0.001070      0.000550     -0.001620
    64   Atom        0.005350     -0.003770     -0.001580
    65   Atom        0.004997     -0.003112     -0.001885
    66   Atom       -0.028898     -0.002093      0.030992
    67   Atom       -0.033574     -0.005176      0.038750
    68   Atom       -0.063152      0.021685      0.041467
    69   Atom       -0.059189      0.026383      0.032806
    70   Atom       -0.000583      0.000560      0.000023
    71   Atom        0.000457     -0.000547      0.000091
    72   Atom        0.000801     -0.001010      0.000209
    73   Atom       -1.006195      0.220338      0.785857
 --------------------------------------------------------
                        XY            XZ            YZ
 --------------------------------------------------------
     1   Atom        1.496814      0.482138     -1.400205
     2   Atom        0.063553      0.031863     -0.030274
     3   Atom       -0.017900     -0.008014      0.011661
     4   Atom        0.062114      0.025771     -0.026444
     5   Atom       -0.031331     -0.016274      0.015577
     6   Atom        0.078200      0.038411     -0.032337
     7   Atom       -0.031966     -0.013973      0.016195
     8   Atom       -0.003039     -0.001430      0.000212
     9   Atom       -0.002284     -0.004167     -0.003381
    10   Atom       -0.000437     -0.001551      0.000888
    11   Atom        0.002392      0.002433      0.006232
    12   Atom       -0.001395      0.000385      0.002509
    13   Atom        0.167331      0.104923     -0.066093
    14   Atom        0.068580      0.040255     -0.050301
    15   Atom       -0.005073     -0.011129     -0.015096
    16   Atom       -0.001189      0.009142      0.003345
    17   Atom       -0.001978     -0.009800     -0.001297
    18   Atom        0.000432     -0.001688      0.000245
    19   Atom        0.000367      0.002007     -0.000574
    20   Atom        0.002835      0.000480     -0.000514
    21   Atom       -0.001129      0.001316     -0.001328
    22   Atom        0.002227     -0.002004     -0.004093
    23   Atom        0.002195      0.002243      0.003901
    24   Atom        0.002339      0.001879      0.004197
    25   Atom        0.002018     -0.002023     -0.004105
    26   Atom       -0.002059     -0.004577      0.002436
    27   Atom       -0.001865      0.004716     -0.002747
    28   Atom       -0.001444     -0.004654      0.002594
    29   Atom       -0.001714      0.004751     -0.002274
    30   Atom        0.000398     -0.000162     -0.000590
    31   Atom        0.000446      0.000644      0.000281
    32   Atom        0.000468     -0.000129      0.000815
    33   Atom        0.000307     -0.000092     -0.000631
    34   Atom        0.000583     -0.003323     -0.000821
    35   Atom        0.000862      0.004080      0.001065
    36   Atom       -0.000339     -0.001764      0.003890
    37   Atom       -0.000638      0.001477     -0.003318
    38   Atom        0.004867      0.003687      0.001707
    39   Atom        0.004893     -0.003616     -0.001822
    40   Atom        0.005652      0.003623     -0.004824
    41   Atom       -0.002358     -0.000500      0.003682
    42   Atom        0.003785     -0.002595     -0.001883
[...]
 Variable       Old X    -DE/DX   Delta X   Delta X   Delta X     New X
                                 (Linear)    (Quad)   (Total)
    X1      -18.26174   0.00256   0.00000   0.00236  -0.00088 -18.26262
    Y1       15.63026  -0.01180   0.00000  -0.01173  -0.01522  15.61503
    Z1       19.90909  -0.00313   0.00000  -0.00332  -0.00472  19.90437
    X2      -15.82562   0.00205   0.00000   0.00186   0.00026 -15.82535
    Y2        8.08502   0.00117   0.00000   0.01704   0.01436   8.09939
    Z2       23.05944   0.00283   0.00000   0.00611   0.00537  23.06481
    X3      -17.33791   0.00057   0.00000  -0.02325  -0.02478 -17.36270
    Y3        7.46770   0.00350   0.00000   0.03757   0.03437   7.50207
    Z3       20.95968  -0.00505   0.00000   0.01313   0.01249  20.97217
    X4      -19.05953  -0.00244   0.00000  -0.00730  -0.00840 -19.06794
    Y4        5.45587  -0.00277   0.00000   0.01122   0.00769   5.46356
    Z4       21.20410  -0.00058   0.00000  -0.01141  -0.01181  21.19229
    X5      -19.29175  -0.00131   0.00000   0.00124   0.00047 -19.29127
    Y5        4.13711   0.00008   0.00000   0.00073  -0.00262   4.13448
    Z5       23.46693  -0.00218   0.00000  -0.02055  -0.02081  23.44613
    X6      -17.78301   0.00012   0.00000   0.00114   0.00030 -17.78271
    Y6        4.77831   0.00046   0.00000   0.00491   0.00207   4.78038
    Z6       25.53298  -0.00118   0.00000  -0.01905  -0.01942  25.51356
    X7      -16.04651   0.00145   0.00000   0.00883   0.00758 -16.03893
    Y7        6.75414   0.00197   0.00000   0.00240  -0.00011   6.75403
    Z7       25.31554  -0.00080   0.00000  -0.00724  -0.00785  25.30769
    X8      -14.46381   0.00023   0.00000   0.00878   0.00686 -14.45694
    Y8        9.63087  -0.00051   0.00000   0.00880   0.00638   9.63725
    Z8       22.93688   0.00010   0.00000   0.00680   0.00586  22.94275
    X9      -20.24930   0.00033   0.00000  -0.00025  -0.00130 -20.25060
    Y9        4.95213  -0.00027   0.00000   0.00639   0.00246   4.95459
    Z9       19.59086   0.00021   0.00000  -0.01340  -0.01371  19.57715
   X10      -20.66509   0.00071   0.00000   0.01392   0.01348 -20.65161
   Y10        2.60322  -0.00011   0.00000  -0.00973  -0.01336   2.58986
   Z10       23.62411  -0.00035   0.00000  -0.02295  -0.02302  23.60109
   X11      -17.94272  -0.00031   0.00000  -0.00326  -0.00383 -17.94655
   Y11        3.72975   0.00035   0.00000   0.00425   0.00154   3.73129
   Z11       27.30317  -0.00013   0.00000  -0.01926  -0.01952  27.28365
   X12      -14.86590   0.00023   0.00000   0.01553   0.01422 -14.85168
   Y12        7.27678  -0.00052   0.00000  -0.01487  -0.01698   7.25979
   Z12       26.92736  -0.00051   0.00000  -0.00811  -0.00880  26.91855
   X13      -17.24773  -0.01258   0.00000  -0.06176  -0.06366 -17.31138
   Y13        8.88375  -0.01547   0.00000   0.07669   0.07327   8.95703
   Z13       18.58524   0.01163   0.00000   0.05305   0.05227  18.63751
   X14      -15.94463   0.00387   0.00000  -0.04071  -0.04307 -15.98770
   Y14       11.03962   0.02622   0.00000   0.10386   0.10068  11.14030
   Z14       18.18993   0.00006   0.00000   0.03702   0.03598  18.22592
   X15      -18.40569   0.00034   0.00000  -0.03946  -0.04125 -18.44693
   Y15        8.11711   0.00073   0.00000   0.06500   0.06120   8.17831
   Z15       17.04857   0.00033   0.00000   0.04145   0.04078  17.08935
   X16      -16.00568   0.00190   0.00000   0.00949   0.00689 -15.99879
   Y16       11.99765  -0.00230   0.00000   0.03252   0.02915  12.02681
   Z16       16.36719  -0.00207   0.00000  -0.00313  -0.00425  16.36295
   X17      -14.68524   0.00327   0.00000   0.03440   0.03192 -14.65332
   Y17       11.84260  -0.00147   0.00000   0.04924   0.04646  11.88907
   Z17       19.60815  -0.00026   0.00000   0.00193   0.00078  19.60893
   X18       -1.84308   0.00499   0.00000   0.02500   0.02552  -1.81756
   Y18       -3.43475  -0.00083   0.00000  -0.00225  -0.00292  -3.43767
   Z18       14.09168  -0.00128   0.00000  -0.01295  -0.01299  14.07869
   X19      -15.82973  -0.00494   0.00000  -0.02112  -0.02079 -15.85052
   Y19       -2.50393   0.00126   0.00000  -0.00477  -0.00833  -2.51225
   Z19       14.10058  -0.00155   0.00000  -0.01333  -0.01304  14.08754
   X20      -13.24588  -0.00400   0.00000  -0.01518  -0.01572 -13.26160
   Y20        2.52540   0.00426   0.00000   0.01496   0.01249   2.53789
   Z20       19.81278   0.00097   0.00000   0.01005   0.00977  19.82256
   X21       -4.40440   0.00372   0.00000   0.01723   0.01893  -4.38548
   Y21       -8.31051  -0.00338   0.00000  -0.02026  -0.02089  -8.33141
   Z21       19.94614   0.00148   0.00000   0.01288   0.01339  19.95953
   X22       -6.39126  -0.00250   0.00000   0.01034   0.00983  -6.38143
   Y22        1.33923  -0.01564   0.00000  -0.02364  -0.02542   1.31381
   Z22       12.28164   0.01458   0.00000   0.01026   0.00990  12.29154
   X23      -11.32488   0.00350   0.00000  -0.00863  -0.00737 -11.33226
   Y23       -7.25557   0.01499   0.00000   0.00960   0.00681  -7.24875
   Z23       12.41230   0.01502   0.00000   0.01019   0.01080  12.42309
   X24       -6.78223  -0.00984   0.00000  -0.01974  -0.02005  -6.80229
   Y24        1.65846  -0.01254   0.00000  -0.00203  -0.00300   1.65545
   Z24       21.54368  -0.01481   0.00000  -0.01028  -0.01067  21.53302
   X25      -10.90034   0.01058   0.00000   0.02243   0.02398 -10.87636
   Y25       -7.34305   0.01073   0.00000  -0.00525  -0.00705  -7.35010
   Z25       21.68179  -0.01534   0.00000  -0.01128  -0.01068  21.67111
   X26       -4.61482  -0.01218   0.00000   0.00448   0.00523  -4.60959
   Y26       -4.88974   0.01114   0.00000   0.01160   0.01017  -4.87957
   Z26       12.06178   0.01583   0.00000   0.00914   0.00932  12.07109
   X27      -13.06032   0.01220   0.00000   0.00250   0.00246 -13.05785
   Y27       -1.02715  -0.01197   0.00000  -0.02402  -0.02720  -1.05435
   Z27       12.00558   0.01568   0.00000   0.01127   0.01133  12.01691
   X28      -12.83279   0.01742   0.00000   0.01288   0.01302 -12.81977
   Y28       -0.49712  -0.00465   0.00000   0.00494   0.00276  -0.49435
   Z28       21.88821  -0.01603   0.00000  -0.01033  -0.01033  21.87788
   X29       -4.82468  -0.01624   0.00000  -0.01007  -0.00896  -4.83364
   Y29       -5.18466   0.00293   0.00000  -0.01290  -0.01343  -5.19810
   Z29       21.95472  -0.01588   0.00000  -0.00933  -0.00911  21.94561
   X30       -5.93708   0.00108   0.00000  -0.00998  -0.01102  -5.94810
   Y30        3.59395   0.00425   0.00000  -0.01016  -0.01206   3.58189
   Z30       10.07244  -0.00477   0.00000   0.00220   0.00160  10.07404
   X31      -11.58832  -0.00068   0.00000   0.00907   0.01075 -11.57757
   Y31       -9.61639  -0.00459   0.00000  -0.00154  -0.00458  -9.62097
   Z31       10.25249  -0.00428   0.00000   0.00321   0.00406  10.25655
   X32       -5.03160   0.00352   0.00000  -0.00075  -0.00133  -5.03293
   Y32        3.24529   0.00327   0.00000  -0.00920  -0.00960   3.23569
   Z32       23.71893   0.00456   0.00000  -0.00248  -0.00307  23.71586
   X33      -12.62646  -0.00340   0.00000   0.00370   0.00562 -12.62084
   Y33       -8.87335  -0.00307   0.00000   0.00158  -0.00036  -8.87371
   Z33       23.91202   0.00455   0.00000  -0.00422  -0.00342  23.90860
   X34       -5.02933   0.00185   0.00000   0.01725   0.01731  -5.01202
   Y34       -1.72175   0.00118   0.00000   0.00072  -0.00095  -1.72270
   Z34       10.55889  -0.00478   0.00000  -0.01601  -0.01612  10.54278
   X35      -12.64748  -0.00202   0.00000  -0.01368  -0.01309 -12.66056
   Y35       -4.30425  -0.00021   0.00000  -0.01061  -0.01384  -4.31809
   Z35       10.62197  -0.00500   0.00000  -0.01653  -0.01617  10.60580
   X36       -9.98039  -0.00100   0.00000  -0.00698  -0.00711  -9.98750
   Y36        1.02391   0.00217   0.00000   0.01423   0.01278   1.03670
   Z36       23.35668   0.00496   0.00000   0.01399   0.01375  23.37044
   X37       -7.66089   0.00045   0.00000   0.00738   0.00885  -7.65204
   Y37       -6.69577  -0.00190   0.00000  -0.01887  -0.01983  -6.71561
   Z37       23.44942   0.00486   0.00000   0.01433   0.01478  23.46420
   X38        0.63624   0.00671   0.00000  -0.00325  -0.00332   0.63293
   Y38       -0.10937   0.00234   0.00000   0.00293   0.00310  -0.10627
   Z38       17.51987   0.00190   0.00000   0.00381   0.00337  17.52324
   X39      -18.31779  -0.00692   0.00000   0.00552   0.00661 -18.31118
   Y39       -5.70781  -0.00213   0.00000  -0.00905  -0.01277  -5.72057
   Z39       17.60849   0.00217   0.00000   0.00483   0.00550  17.61398
   X40      -12.02800  -0.00355   0.00000  -0.01018  -0.01163 -12.03962
   Y40        6.45714   0.00906   0.00000  -0.00673  -0.00928   6.44786
   Z40       16.38861  -0.00113   0.00000  -0.00332  -0.00402  16.38459
   X41       -5.65232   0.00203   0.00000   0.00103   0.00344  -5.64889
   Y41      -12.27457  -0.00679   0.00000  -0.00259  -0.00381 -12.27838
   Z41       16.52735  -0.00180   0.00000  -0.00361  -0.00268  16.52467
   X42       -3.32995   0.00300   0.00000   0.01807   0.01760  -3.31235
   Y42        1.38764   0.00412   0.00000   0.00630   0.00533   1.39297
   Z42       14.13391  -0.00181   0.00000  -0.01186  -0.01232  14.12159
   X43      -14.35752  -0.00368   0.00000  -0.01791  -0.01658 -14.37410
   Y43       -7.33631  -0.00368   0.00000  -0.01364  -0.01687  -7.35319
   Z43       14.26164  -0.00145   0.00000  -0.01103  -0.01032  14.25132
   X44       -8.46717   0.00042   0.00000  -0.00661  -0.00749  -8.47466
   Y44        4.14561   0.00539   0.00000   0.01917   0.01767   4.16328
   Z44       19.69694   0.00105   0.00000   0.00673   0.00615  19.70309
   X45       -9.19877  -0.00124   0.00000   0.00927   0.01129  -9.18748
   Y45       -9.90207  -0.00494   0.00000  -0.02447  -0.02609  -9.92816
   Z45       19.88570   0.00174   0.00000   0.01067   0.01147  19.89717
   X46       -3.05001   0.00362   0.00000   0.00027   0.00133  -3.04868
   Y46       -6.65535  -0.00434   0.00000  -0.00930  -0.01063  -6.66598
   Z46        9.88127  -0.00474   0.00000   0.00384   0.00415   9.88542
   X47      -14.71536  -0.00405   0.00000   0.00864   0.00822 -14.70714
   Y47        0.49479   0.00351   0.00000  -0.00025  -0.00399   0.49080
   Z47        9.74257  -0.00483   0.00000   0.00384   0.00380   9.74636
   X48      -15.12808  -0.00615   0.00000  -0.00149  -0.00132 -15.12941
   Y48       -0.30589   0.00058   0.00000  -0.01061  -0.01304  -0.31894
   Z48       24.12212   0.00543   0.00000  -0.00331  -0.00326  24.11887
   X49       -2.50233   0.00571   0.00000   0.00437   0.00559  -2.49675
   Y49       -5.42055  -0.00062   0.00000   0.00240   0.00257  -5.41798
   Z49       24.15929   0.00470   0.00000  -0.00382  -0.00364  24.15564
   X50       -2.31740  -0.02141   0.00000  -0.00814  -0.00803  -2.32543
   Y50       -1.07308  -0.00731   0.00000  -0.00877  -0.00929  -1.08237
   Z50       16.70419  -0.00458   0.00000  -0.01636  -0.01661  16.68758
   X51      -15.36452   0.02178   0.00000   0.01107   0.01194 -15.35258
   Y51       -4.76597   0.00609   0.00000  -0.00029  -0.00349  -4.76946
   Z51       16.76906  -0.00487   0.00000  -0.01687  -0.01638  16.75268
   X52      -11.11785   0.00844   0.00000   0.00018  -0.00063 -11.11848
   Y52        3.48898  -0.02368   0.00000  -0.01802  -0.02031   3.46867
   Z52       17.09715   0.00501   0.00000   0.01500   0.01457  17.11172
   X53       -6.57237  -0.00661   0.00000   0.00466   0.00647  -6.56590
   Y53       -9.29864   0.02124   0.00000   0.00730   0.00597  -9.29267
   Z53       17.31019   0.00415   0.00000   0.01589   0.01656  17.32675
   X54       -7.96941   0.00093   0.00000   0.00000   0.00095  -7.96846
   Y54       -5.90050  -0.00209   0.00000   0.00953   0.00734  -5.89316
   Z54       11.46584  -0.00316   0.00000   0.01042   0.01080  11.47664
   X55       -9.70193  -0.00106   0.00000   0.00476   0.00452  -9.69741
   Y55       -0.10570   0.00232   0.00000  -0.02252  -0.02507  -0.13078
   Z55       11.37199  -0.00304   0.00000   0.01018   0.01005  11.38205
   X56      -11.65108  -0.00252   0.00000   0.01503   0.01587 -11.63521
   Y56       -3.80779   0.00020   0.00000   0.00188   0.00001  -3.80778
   Z56       22.52975   0.00305   0.00000  -0.01165  -0.01137  22.51838
   X57       -5.97137   0.00222   0.00000  -0.01285  -0.01241  -5.98377
   Y57       -1.87682   0.00082   0.00000  -0.00811  -0.00882  -1.88564
   Z57       22.51714   0.00341   0.00000  -0.00903  -0.00909  22.50805
   X58       -8.20581  -0.00043   0.00000   0.00312   0.00234  -8.20347
   Y58        2.98759   0.00365   0.00000  -0.01781  -0.01971   2.96788
   Z58       14.82493  -0.00176   0.00000   0.00874   0.00827  14.83320
   X59       -9.46047  -0.00041   0.00000  -0.00170  -0.00003  -9.46050
   Y59       -8.88107  -0.00317   0.00000   0.00927   0.00711  -8.87396
   Z59       14.96966  -0.00220   0.00000   0.01036   0.01107  14.98073
   X60       -4.33915   0.00206   0.00000  -0.01559  -0.01585  -4.35500
   Y60        1.05352   0.00244   0.00000  -0.00563  -0.00634   1.04718
   Z60       19.03785   0.00233   0.00000  -0.01032  -0.01071  19.02714
   X61      -13.32204  -0.00257   0.00000   0.01737   0.01874 -13.30330
   Y61       -6.84223  -0.00209   0.00000  -0.00250  -0.00505  -6.84728
   Z61       19.14885   0.00209   0.00000  -0.01166  -0.01104  19.13782
   X62       -4.86084   0.00203   0.00000   0.00456   0.00592  -4.85492
   Y62       -7.39777  -0.00298   0.00000   0.00684   0.00562  -7.39214
   Z62       14.84962  -0.00121   0.00000   0.01170   0.01214  14.86176
   X63      -12.84787  -0.00166   0.00000   0.00102   0.00055 -12.84732
   Y63        1.48919   0.00371   0.00000  -0.01624  -0.01911   1.47008
   Z63       14.74088  -0.00067   0.00000   0.01266   0.01247  14.75335
   X64      -14.76423  -0.00349   0.00000   0.01042   0.01083 -14.75339
   Y64       -2.23032   0.00036   0.00000   0.00100  -0.00184  -2.23216
   Z64       19.18739   0.00145   0.00000  -0.01259  -0.01237  19.17502
   X65       -2.91075   0.00337   0.00000  -0.00737  -0.00668  -2.91742
   Y65       -3.56316   0.00034   0.00000  -0.00803  -0.00844  -3.57160
   Z65       19.17530   0.00113   0.00000  -0.01185  -0.01184  19.16346
   X66       -6.32438   0.03975   0.00000   0.07147   0.07176  -6.25262
   Y66       -2.20152   0.00729   0.00000   0.00520   0.00372  -2.19780
   Z66       15.14536  -0.02543   0.00000  -0.04062  -0.04065  15.10471
   X67      -11.34989  -0.04041   0.00000  -0.06656  -0.06595 -11.41584
   Y67       -3.71823  -0.00838   0.00000  -0.01830  -0.02084  -3.73906
   Z67       15.18301  -0.02515   0.00000  -0.04101  -0.04074  15.14227
   X68       -9.64069  -0.01670   0.00000  -0.03025  -0.03023  -9.67092
   Y68       -0.40820   0.03826   0.00000   0.05851   0.05668  -0.35152
   Z68       18.79022   0.02561   0.00000   0.04185   0.04174  18.83197
   X69       -8.00445   0.01663   0.00000   0.03379   0.03486  -7.96958
   Y69       -5.39357  -0.03664   0.00000  -0.06458  -0.06605  -5.45962
   Z69       18.85148   0.02580   0.00000   0.04116   0.04149  18.89297
   X70       -6.08624  -0.00035   0.00000   0.00030   0.00239  -6.08385
   Y70      -11.60746   0.00121   0.00000   0.00911   0.00723 -11.60023
   Z70       10.67440   0.00089   0.00000   0.01172   0.01260  10.68700
   X71       -0.24256  -0.00075   0.00000  -0.01238  -0.01230  -0.25486
   Y71        0.00315  -0.00054   0.00000  -0.00647  -0.00593  -0.00279
   Z71       23.27432  -0.00046   0.00000  -0.00979  -0.01021  23.26411
   X72      -17.55368   0.00111   0.00000   0.01590   0.01708 -17.53660
   Y72       -5.32714   0.00011   0.00000  -0.00294  -0.00594  -5.33308
   Z72       23.44810  -0.00091   0.00000  -0.01206  -0.01145  23.43665
   X73       -8.83376   0.00063   0.00000   0.00281   0.00330  -8.83046
   Y73       -2.92333  -0.00031   0.00000  -0.00474  -0.00657  -2.92990
   Z73       16.98842  -0.00041   0.00000  -0.00035  -0.00023  16.98818
         Item               Value     Threshold  Converged?
 Maximum Force            0.040406     0.000450     NO 
 RMS     Force            0.009132     0.000300     NO 
 Maximum Displacement     0.100681     0.001800     NO 
 RMS     Displacement     0.020219     0.001200     NO 
 Predicted change in Energy=-1.281452D-02
 GradGradGradGradGradGradGradGradGradGradGradGradGradGradGradGradGradGrad

 Unable to Open any file for archive entry.
 1\1\GINC-X11P1N2\Force\UwB97XD\def2SVP\C8H8Cl1K3O40V1W12(1-)\MAYUMIAO\
 03-Jun-2024\0\\# def2svp wb97xd scrf=(smd,solvent=acetonitrile) g09def
 ault scf=(xqc,maxcycle=64) force guess=read nosymm\\Title Card\\-1,1\C
 l,-9.66369776,8.27117527,10.53543574\C,-8.37455568,4.27841076,12.20253
 257\C,-9.17482926,3.95173606,11.09138681\C,-10.08587131,2.88712225,11.
 22072428\C,-10.20875301,2.18926231,12.41816547\C,-9.41036232,2.5285734
 7,13.51147192\C,-8.49144708,3.57413912,13.3964072\H,-7.65391648,5.0964
 3558,12.13767618\H,-10.71546815,2.6205559,10.36703476\H,-10.93549385,1
 .37756427,12.50134018\H,-9.49487825,1.97369949,14.44821555\H,-7.866694
 1,3.85070377,14.24934301\C,-9.1271032,4.70107937,9.83488663\C,-8.43753
 459,5.84191589,9.62569798\H,-9.73986956,4.29539112,9.02171414\H,-8.469
 8418,6.34888476,8.66114589\H,-7.7710953,6.26683495,10.3761862\O,-0.975
 31462,-1.81759201,7.4569952\O,-8.37673149,-1.32502178,7.46170808\O,-7.
 00941622,1.33638377,10.48447357\O,-2.33070897,-4.39773459,10.55504533\
 W,-3.3821066,0.70868994,6.49916434\W,-5.99287036,-3.83948038,6.5683037
 8\W,-3.58900197,0.87761681,11.40042681\W,-5.76821221,-3.88577607,11.47
 351089\W,-2.44205992,-2.58753646,6.38281652\W,-6.91122288,-0.5435467,6
 .35307991\W,-6.79082233,-0.26306413,11.58274108\W,-2.55310936,-2.74360
 586,11.61793801\O,-3.14176716,1.90183564,5.33010426\O,-6.13227507,-5.0
 8877262,5.42538414\O,-2.66260968,1.71733385,12.55151598\O,-6.68163506,
 -4.69557504,12.65369635\O,-2.66140528,-0.91111329,5.58752552\O,-6.6927
 5804,-2.27771117,5.62090385\O,-5.28139462,0.54183171,12.35982468\O,-4.
 05396628,-3.54325017,12.40889916\O,0.3366842,-0.05787551,9.27111354\O,
 -9.69335531,-3.02044041,9.31800926\O,-6.36494247,3.41697364,8.67247938
 \O,-2.99107936,-6.49542081,8.74589486\O,-1.76213124,0.7343089,7.479341
 99\O,-7.59767125,-3.88221017,7.54693627\O,-4.48063155,2.19376039,10.42
 317093\O,-4.86777913,-5.23995128,10.52305903\O,-1.61399474,-3.52185858
 ,5.22894524\O,-7.78703279,0.26183072,5.15554425\O,-8.00543751,-0.16187
 077,12.76487827\O,-1.32417862,-2.86843098,12.78454445\W,-1.22631321,-0
 .5678506,8.83947587\W,-8.13055411,-2.52204297,8.87380561\W,-5.88331045
 ,1.84629024,9.04742436\W,-3.47794854,-4.92062976,9.1601602\O,-4.217227
 71,-3.1224088,6.06746155\O,-5.13403875,-0.05593658,6.01780035\O,-6.165
 48524,-2.01499438,11.92223115\O,-3.15991094,-0.99317022,11.91555878\O,
 -4.34232835,1.58096505,7.84501609\O,-5.00626414,-4.69966215,7.92160285
 \O,-2.29617883,0.55749855,10.0743971\O,-7.04972007,-3.62075097,10.1331
 3709\O,-2.57224554,-3.91472962,7.85808115\O,-6.79879965,0.78804364,7.8
 005398\O,-7.81289157,-1.18023558,10.15352754\O,-1.54030112,-1.88554538
 ,10.14713037\O,-3.34671601,-1.16499182,8.01457941\O,-6.00610067,-1.967
 60214,8.03450247\O,-5.10163317,-0.21601226,9.94335876\O,-4.23577139,-2
 .85415658,9.97577233\K,-3.22069986,-6.14240334,5.6486517\K,-0.12835584
 ,0.00166439,12.31624149\K,-9.28900657,-2.81900136,12.40820047\V,-4.674
 62698,-1.54695732,8.98988207\\Version=ES64L-G16RevC.01\HF=-7327.702095
 8\S2=1.022472\S2-1=0.\S2A=0.179938\RMSD=4.146e-09\RMSF=9.132e-03\Dipol
 e=1.2189901,-7.2150622,5.5657111\Quadrupole=-4.6407303,29.3610372,-24.
 7203069,94.4864642,128.2715323,-69.8272094\PG=C01 [X(C8H8Cl1K3O40V1W12
 )]\\@
 The archive entry for this job was punched.


 DEPRESSION IS WAITING FOR YOUR SHIP TO COME IN,
 AND FINDING OUT IT'S THE TITANIC.
 Job cpu time:       0 days 13 hours  2 minutes 11.2 seconds.
 Elapsed time:       0 days  0 hours 14 minutes 47.8 seconds.
 File lengths (MBytes):  RWF=   1868 Int=      0 D2E=      0 Chk=    306 Scr=      1
 Normal termination of Gaussian 16 at Mon Jun  3 02:57:35 2024.
