 Entering Gaussian System, Link 0=g16
 Input=JOBS/67_B.gjf
 Output=JOBS/67_B.log
 Initial command:
 /data/app/gaussian/C01-avx2//g16/l1.exe "/tmp/Gau-708080.inp" -scrdir="/tmp/"
 Entering Link 1 = /data/app/gaussian/C01-avx2//g16/l1.exe PID=    708081.
  
 Copyright (c) 1988-2019, Gaussian, Inc.  All Rights Reserved.
  
 This is part of the Gaussian(R) 16 program.  It is based on
 the Gaussian(R) 09 system (copyright 2009, Gaussian, Inc.),
 the Gaussian(R) 03 system (copyright 2003, Gaussian, Inc.),
 the Gaussian(R) 98 system (copyright 1998, Gaussian, Inc.),
 the Gaussian(R) 94 system (copyright 1995, Gaussian, Inc.),
 the Gaussian 92(TM) system (copyright 1992, Gaussian, Inc.),
 the Gaussian 90(TM) system (copyright 1990, Gaussian, Inc.),
 the Gaussian 88(TM) system (copyright 1988, Gaussian, Inc.),
 the Gaussian 86(TM) system (copyright 1986, Carnegie Mellon
 University), and the Gaussian 82(TM) system (copyright 1983,
 Carnegie Mellon University). Gaussian is a federally registered
 trademark of Gaussian, Inc.
  
 This software contains proprietary and confidential information,
 including trade secrets, belonging to Gaussian, Inc.
  
 This software is provided under written license and may be
 used, copied, transmitted, or stored only in accord with that
 written license.
  
 The following legend is applicable only to US Government
 contracts under FAR:
  
                    RESTRICTED RIGHTS LEGEND
  
 Use, reproduction and disclosure by the US Government is
 subject to restrictions as set forth in subparagraphs (a)
 and (c) of the Commercial Computer Software - Restricted
 Rights clause in FAR 52.227-19.
  
 Gaussian, Inc.
 340 Quinnipiac St., Bldg. 40, Wallingford CT 06492
  
  
 ---------------------------------------------------------------
 Warning -- This program may not be used in any manner that
 competes with the business of Gaussian, Inc. or will provide
 assistance to any competitor of Gaussian, Inc.  The licensee
 of this program is prohibited from giving any competitor of
 Gaussian, Inc. access to this program.  By using this program,
 the user acknowledges that Gaussian, Inc. is engaged in the
 business of creating and licensing software in the field of
 computational chemistry and represents and warrants to the
 licensee that it is not a competitor of Gaussian, Inc. and that
 it will not use this program in any manner prohibited above.
 ---------------------------------------------------------------
  

 Cite this work as:
 Gaussian 16, Revision C.01,
 M. J. Frisch, G. W. Trucks, H. B. Schlegel, G. E. Scuseria, 
 M. A. Robb, J. R. Cheeseman, G. Scalmani, V. Barone, 
 G. A. Petersson, H. Nakatsuji, X. Li, M. Caricato, A. V. Marenich, 
 J. Bloino, B. G. Janesko, R. Gomperts, B. Mennucci, H. P. Hratchian, 
 J. V. Ortiz, A. F. Izmaylov, J. L. Sonnenberg, D. Williams-Young, 
 F. Ding, F. Lipparini, F. Egidi, J. Goings, B. Peng, A. Petrone, 
 T. Henderson, D. Ranasinghe, V. G. Zakrzewski, J. Gao, N. Rega, 
 G. Zheng, W. Liang, M. Hada, M. Ehara, K. Toyota, R. Fukuda, 
 J. Hasegawa, M. Ishida, T. Nakajima, Y. Honda, O. Kitao, H. Nakai, 
 T. Vreven, K. Throssell, J. A. Montgomery, Jr., J. E. Peralta, 
 F. Ogliaro, M. J. Bearpark, J. J. Heyd, E. N. Brothers, K. N. Kudin, 
 V. N. Staroverov, T. A. Keith, R. Kobayashi, J. Normand, 
 K. Raghavachari, A. P. Rendell, J. C. Burant, S. S. Iyengar, 
 J. Tomasi, M. Cossi, J. M. Millam, M. Klene, C. Adamo, R. Cammi, 
 J. W. Ochterski, R. L. Martin, K. Morokuma, O. Farkas, 
 J. B. Foresman, and D. J. Fox, Gaussian, Inc., Wallingford CT, 2019.
 
 ******************************************
 Gaussian 16:  ES64L-G16RevC.01  3-Jul-2019
                 3-Jun-2024 
 ******************************************
 %chk=b.chk
 %nprocshared=56
 Will use up to   56 processors via shared memory.
 %mem=96gb
 ----------------------------------------------------------------------
 # def2svp wb97xd scrf=(smd,solvent=acetonitrile) g09default scf=(xqc,m
 axcycle=64) force guess=read nosymm
 ----------------------------------------------------------------------
 1/10=7,30=1,38=1,158=3,167=1/1,3;
 2/12=2,15=1,17=6,18=5,40=1/2;
 3/5=43,7=101,11=2,25=1,27=10,30=1,70=32201,71=1,72=2,74=-58,75=-4,116=-2,158=3/1,2,3;
 4/5=1,60=-1/1;
 5/5=2,7=64,8=3,13=1,38=6,53=2,87=10/2,8;
 6/7=2,8=2,9=2,10=2,28=1,87=10/1;
 7/29=1,30=1,87=10/1,2,3,16;
 1/10=7,30=1,158=3,167=1/3;
 99//99;
 Using 2006 physical constants.
 ----------
 Title Card
 ----------
 Symbolic Z-matrix:
 Charge = -1 Multiplicity = 1
 17                   -9.66983   8.27257   10.5357 
 6                    -8.37854   4.28183   12.20143 
 6                    -9.18039   3.95532   11.09122 
 6                    -10.09028   2.88981   11.22171 
 6                    -10.20902   2.18995   12.41838 
 6                    -9.40757   2.52791   13.51004 
 6                    -8.49114   3.57558   13.39431 
 1                    -7.66027   5.1019    12.1365 
 1                    -10.72244   2.62372   10.36964 
 1                    -10.93516   1.3778    12.50278 
 1                    -9.48787   1.97068   14.44569 
 1                    -7.86511   3.85263   14.24622 
 6                    -9.13384   4.70604   9.83544 
 6                    -8.43887   5.84359   9.62559 
 1                    -9.75148   4.30467   9.02377 
 1                    -8.4707    6.35222   8.66196 
 1                    -7.76671   6.26283   10.37436 
 8                    -0.97518  -1.81953   7.45596 
 8                    -8.37569  -1.32398   7.46144 
 8                    -7.00852   1.33495   10.48595 
 8                    -2.32977  -4.39773   10.55509 
 74                   -3.37998   0.71048   6.50177 
 74                   -5.99371  -3.84171   6.57 
 74                   -3.58651   0.87867   11.39865 
 74                   -5.76894  -3.8882    11.47183 
 74                   -2.44366  -2.58731   6.38017 
 74                   -6.90833  -0.54447   6.3512 
 74                   -6.7878   -0.26456   11.58542 
 74                   -2.55422  -2.74378   11.61978 
 8                    -3.13858   1.90501   5.33401 
 8                    -6.13406  -5.09089   5.42729 
 8                    -2.66036   1.71882   12.54957 
 8                    -6.68162  -4.69934   12.65169 
 8                    -2.66112  -0.91022   5.58737 
 8                    -6.69176  -2.27871   5.62104 
 8                    -5.2787    0.54087   12.36029 
 8                    -4.05445  -3.54435   12.40883 
 8                     0.33922  -0.06305   9.27028 
 8                    -9.69421  -3.01684   9.31764 
 8                    -6.36785   3.41552   8.67389 
 8                    -2.98783  -6.49516   8.74615 
 8                    -1.76034   0.73338   7.48061 
 8                    -7.59802  -3.88195   7.54791 
 8                    -4.47994   2.19364   10.42301 
 8                    -4.86688  -5.24063   10.52175 
 8                    -1.61619  -3.52115   5.22592 
 8                    -7.78386   0.26045   5.15331 
 8                    -8.00197  -0.16246   12.76801 
 8                    -1.32543  -2.86922   12.78645 
 74                   -1.22432  -0.57178   8.8393 
 74                   -8.1308   -2.51933   8.87394 
 74                   -5.88494   1.84477   9.04819 
 74                   -3.47511  -4.92063   9.15973 
 8                    -4.21789  -3.12308   6.06674 
 8                    -5.13226  -0.05509   6.01767 
 8                    -6.16514  -2.01691   11.92324 
 8                    -3.15841  -0.99326   11.91607 
 8                    -4.34171   1.58121   7.84623 
 8                    -5.00545  -4.70117   7.92117 
 8                    -2.29395   0.55656   10.07427 
 8                    -7.05065  -3.62129   10.13326 
 8                    -2.57189  -3.91515   7.85676 
 8                    -6.79807   0.78733   7.80038 
 8                    -7.81195  -1.18019   10.15485 
 8                    -1.5393   -1.88694   10.14782 
 8                    -3.34601  -1.16551   8.01453 
 8                    -6.00541  -1.96798   8.03468 
 8                    -5.1004   -0.2167    9.94377 
 8                    -4.23524  -2.85461   9.97566 
 19                   -3.22157  -6.14387   5.64865 
 19                   -0.1286   -0.00396   12.31608 
 19                   -9.29034  -2.81911   12.40598 
 23                   -4.67387  -1.54732   8.98989 
 

 GradGradGradGradGradGradGradGradGradGradGradGradGradGradGradGradGradGrad
 Berny optimization.
 Initialization pass.
 Trust Radius=3.00D-01 FncErr=1.00D-07 GrdErr=1.00D-07 EigMax=2.50D+02 EigMin=1.00D-04
 Number of steps in this run=      2 maximum allowed number of steps=      2.
 GradGradGradGradGradGradGradGradGradGradGradGradGradGradGradGradGradGrad

 Symmetry turned off by external request.
 Stoichiometry    C8H8ClK3O40VW12(1-)
 Framework group  C1[X(C8H8ClK3O40VW12)]
 Deg. of freedom   213
 Full point group                 C1      NOp   1
                          Input orientation:                          
 ---------------------------------------------------------------------
 Center     Atomic      Atomic             Coordinates (Angstroms)
 Number     Number       Type             X           Y           Z
 ---------------------------------------------------------------------
      1         17           0       -9.669827    8.272571   10.535698
      2          6           0       -8.378542    4.281829   12.201433
      3          6           0       -9.180386    3.955318   11.091225
      4          6           0      -10.090285    2.889808   11.221714
      5          6           0      -10.209019    2.189947   12.418380
      6          6           0       -9.407570    2.527905   13.510041
      7          6           0       -8.491136    3.575580   13.394310
      8          1           0       -7.660272    5.101896   12.136501
      9          1           0      -10.722443    2.623722   10.369637
     10          1           0      -10.935161    1.377798   12.502778
     11          1           0       -9.487865    1.970680   14.445688
     12          1           0       -7.865115    3.852635   14.246218
     13          6           0       -9.133844    4.706039    9.835438
     14          6           0       -8.438870    5.843589    9.625592
     15          1           0       -9.751477    4.304670    9.023767
     16          1           0       -8.470698    6.352225    8.661965
     17          1           0       -7.766711    6.262830   10.374356
     18          8           0       -0.975184   -1.819530    7.455959
     19          8           0       -8.375687   -1.323976    7.461444
     20          8           0       -7.008517    1.334951   10.485952
     21          8           0       -2.329766   -4.397726   10.555089
     22         74           0       -3.379985    0.710479    6.501768
     23         74           0       -5.993710   -3.841711    6.569997
     24         74           0       -3.586513    0.878665   11.398654
     25         74           0       -5.768940   -3.888202   11.471830
     26         74           0       -2.443659   -2.587311    6.380174
     27         74           0       -6.908327   -0.544472    6.351204
     28         74           0       -6.787800   -0.264562   11.585421
     29         74           0       -2.554223   -2.743780   11.619777
     30          8           0       -3.138584    1.905006    5.334006
     31          8           0       -6.134064   -5.090888    5.427286
     32          8           0       -2.660358    1.718822   12.549568
     33          8           0       -6.681617   -4.699336   12.651689
     34          8           0       -2.661117   -0.910217    5.587369
     35          8           0       -6.691761   -2.278706    5.621045
     36          8           0       -5.278702    0.540874   12.360293
     37          8           0       -4.054454   -3.544353   12.408834
     38          8           0        0.339223   -0.063054    9.270280
     39          8           0       -9.694209   -3.016841    9.317635
     40          8           0       -6.367848    3.415515    8.673888
     41          8           0       -2.987828   -6.495164    8.746150
     42          8           0       -1.760343    0.733377    7.480614
     43          8           0       -7.598020   -3.881948    7.547906
     44          8           0       -4.479942    2.193637   10.423014
     45          8           0       -4.866883   -5.240627   10.521747
     46          8           0       -1.616191   -3.521151    5.225919
     47          8           0       -7.783860    0.260447    5.153313
     48          8           0       -8.001971   -0.162457   12.768012
     49          8           0       -1.325434   -2.869222   12.786450
     50         74           0       -1.224321   -0.571778    8.839296
     51         74           0       -8.130801   -2.519327    8.873943
     52         74           0       -5.884941    1.844773    9.048185
     53         74           0       -3.475109   -4.920632    9.159734
     54          8           0       -4.217893   -3.123080    6.066738
     55          8           0       -5.132261   -0.055091    6.017667
     56          8           0       -6.165140   -2.016905   11.923244
     57          8           0       -3.158410   -0.993263   11.916071
     58          8           0       -4.341710    1.581205    7.846229
     59          8           0       -5.005450   -4.701167    7.921167
     60          8           0       -2.293945    0.556562   10.074268
     61          8           0       -7.050652   -3.621293   10.133264
     62          8           0       -2.571891   -3.915147    7.856755
     63          8           0       -6.798071    0.787326    7.800378
     64          8           0       -7.811948   -1.180193   10.154850
     65          8           0       -1.539299   -1.886940   10.147818
     66          8           0       -3.346014   -1.165512    8.014531
     67          8           0       -6.005410   -1.967976    8.034685
     68          8           0       -5.100398   -0.216696    9.943768
     69          8           0       -4.235237   -2.854609    9.975660
     70         19           0       -3.221572   -6.143866    5.648650
     71         19           0       -0.128602   -0.003957   12.316079
     72         19           0       -9.290336   -2.819107   12.405984
     73         23           0       -4.673872   -1.547321    8.989887
 ---------------------------------------------------------------------
 Rotational constants (GHZ):           0.0171987           0.0131951           0.0129740
 Standard basis: def2SVP (5D, 7F)
  1217 basis functions,  2313 primitive gaussians,  1337 cartesian basis functions
   321 alpha electrons      321 beta electrons
       nuclear repulsion energy     20964.9199241358 Hartrees.
 NAtoms=   73 NActive=   73 NUniq=   73 SFac= 1.00D+00 NAtFMM=   60 NAOKFM=T Big=T
 Integral buffers will be    131072 words long.
 Raffenetti 2 integral format.
 Two-electron integral symmetry is turned off.
 Nuclear repulsion after empirical dispersion term =    20964.6437976141 Hartrees.
 Force PCM accuracy= 1.00D-10.
 ------------------------------------------------------------------------------
 Polarizable Continuum Model (PCM)
 =================================
 Model                : PCM (using non-symmetric T matrix).
 Atomic radii         : SMD-Coulomb.
 Polarization charges : Total charges.
 Charge compensation  : None.
 Solution method      : On-the-fly selection.
 Cavity type          : VdW (van der Waals Surface) (Alpha=1.000).
 Cavity algorithm     : GePol (No added spheres)
                        Default sphere list used, NSphG=   73.
                        Lebedev-Laikov grids with approx.  5.0 points / Ang**2.
                        Smoothing algorithm: York/Karplus (Gamma=1.0000).
                        Polarization charges: spherical gaussians, with
                                              point-specific exponents (IZeta= 3).
                        Self-potential: point-specific (ISelfS= 7).
                        Self-field    : sphere-specific E.n sum rule (ISelfD= 2).
 1st derivatives      : Analytical E(r).r(x)/FMM algorithm (CHGder, D1EAlg=3).
                        Cavity 1st derivative terms included.
 Solvent              : Acetonitrile, Eps=  35.688000 Eps(inf)=   1.806874
 ------------------------------------------------------------------------------
 ------------------------------------------------------------------------------
 Atomic radii for non-electrostatic terms: SMD-CDS.
 ------------------------------------------------------------------------------
 Nuclear repulsion after PCM non-electrostatic terms =    20964.6380552419 Hartrees.
 One-electron integrals computed using PRISM.
   1 Symmetry operations used in ECPInt.
 ECPInt:  NShTT=  127765 NPrTT=  468030 LenC2=   96462 LenP2D=  220692.
 LDataN:  DoStor=T MaxTD1= 8 Len=  415
 NBasis=  1217 RedAO= T EigKep=  1.38D-04  NBF=  1217
 NBsUse=  1217 1.00D-06 EigRej= -1.00D+00 NBFU=  1217
 Defaulting to unpruned grid for atomic number  74.
 Defaulting to unpruned grid for atomic number  74.
 Defaulting to unpruned grid for atomic number  74.
 Defaulting to unpruned grid for atomic number  74.
 Defaulting to unpruned grid for atomic number  74.
 Defaulting to unpruned grid for atomic number  74.
 Defaulting to unpruned grid for atomic number  74.
 Defaulting to unpruned grid for atomic number  74.
 Initial guess from the checkpoint file:  "b.chk"
 B after Tr=     0.001266   -0.000218    0.000382
         Rot=    1.000000   -0.000043    0.000004    0.000040 Ang=  -0.01 deg.
 Initial guess <Sx>= 0.0000 <Sy>= 0.0000 <Sz>= 0.0000 <S**2>= 1.0225 S= 0.6280
 Requested convergence on RMS density matrix=1.00D-08 within  64 cycles.
 Requested convergence on MAX density matrix=1.00D-06.
 Requested convergence on             energy=1.00D-06.
 No special actions if energy rises.
 Defaulting to unpruned grid for atomic number  74.
 Defaulting to unpruned grid for atomic number  74.
 Defaulting to unpruned grid for atomic number  74.
 Defaulting to unpruned grid for atomic number  74.
 Defaulting to unpruned grid for atomic number  74.
 Defaulting to unpruned grid for atomic number  74.
 Defaulting to unpruned grid for atomic number  74.
 Defaulting to unpruned grid for atomic number  74.
 Defaulting to unpruned grid for atomic number  74.
 Defaulting to unpruned grid for atomic number  74.
 Defaulting to unpruned grid for atomic number  74.
 Defaulting to unpruned grid for atomic number  74.
 Defaulting to unpruned grid for atomic number  74.
 Defaulting to unpruned grid for atomic number  74.
 Defaulting to unpruned grid for atomic number  74.
 Defaulting to unpruned grid for atomic number  74.
 Defaulting to unpruned grid for atomic number  74.
 Defaulting to unpruned grid for atomic number  74.
 Defaulting to unpruned grid for atomic number  74.
 Defaulting to unpruned grid for atomic number  74.
 Defaulting to unpruned grid for atomic number  74.
 Defaulting to unpruned grid for atomic number  74.
 Defaulting to unpruned grid for atomic number  74.
 Defaulting to unpruned grid for atomic number  74.
 Defaulting to unpruned grid for atomic number  74.
 Defaulting to unpruned grid for atomic number  74.
 Defaulting to unpruned grid for atomic number  74.
 Defaulting to unpruned grid for atomic number  74.
 Defaulting to unpruned grid for atomic number  74.
 Defaulting to unpruned grid for atomic number  74.
 Defaulting to unpruned grid for atomic number  74.
 Defaulting to unpruned grid for atomic number  74.
 Defaulting to unpruned grid for atomic number  74.
 Defaulting to unpruned grid for atomic number  74.
 Defaulting to unpruned grid for atomic number  74.
 Defaulting to unpruned grid for atomic number  74.
 Defaulting to unpruned grid for atomic number  74.
 Defaulting to unpruned grid for atomic number  74.
 Defaulting to unpruned grid for atomic number  74.
 Defaulting to unpruned grid for atomic number  74.
 Defaulting to unpruned grid for atomic number  74.
 Defaulting to unpruned grid for atomic number  74.
 Defaulting to unpruned grid for atomic number  74.
 Defaulting to unpruned grid for atomic number  74.
 Defaulting to unpruned grid for atomic number  74.
 Defaulting to unpruned grid for atomic number  74.
 Defaulting to unpruned grid for atomic number  74.
 Defaulting to unpruned grid for atomic number  74.
 Defaulting to unpruned grid for atomic number  74.
 Defaulting to unpruned grid for atomic number  74.
 Defaulting to unpruned grid for atomic number  74.
 Defaulting to unpruned grid for atomic number  74.
 Defaulting to unpruned grid for atomic number  74.
 Defaulting to unpruned grid for atomic number  74.
 Defaulting to unpruned grid for atomic number  74.
 Defaulting to unpruned grid for atomic number  74.
 Inv3:  Mode=1 IEnd=    87642075.
 Iteration    1 A*A^-1 deviation from unit magnitude is 4.00D-15 for   4336.
 Iteration    1 A*A^-1 deviation from orthogonality  is 2.79D-15 for   4756   3916.
 Iteration    1 A^-1*A deviation from unit magnitude is 3.22D-15 for   2897.
 Iteration    1 A^-1*A deviation from orthogonality  is 1.50D-10 for   3286   3264.
 Iteration    2 A*A^-1 deviation from unit magnitude is 4.77D-15 for   3647.
 Iteration    2 A*A^-1 deviation from orthogonality  is 6.97D-15 for    557    216.
 Iteration    2 A^-1*A deviation from unit magnitude is 1.33D-15 for   3818.
 Iteration    2 A^-1*A deviation from orthogonality  is 6.23D-16 for   4587   4471.
 Restarting incremental Fock formation.
 Error on total polarization charges =  0.01570
 SCF Done:  E(UwB97XD) =  -7327.70212115     A.U. after   21 cycles
            NFock= 21  Conv=0.26D-08     -V/T= 2.0831
 <Sx>= 0.0000 <Sy>= 0.0000 <Sz>= 0.0000 <S**2>= 1.0225 S= 0.6280
 <L.S>=  0.00000000000    
 SMD-CDS (non-electrostatic) energy       (kcal/mol) =      -3.60
 (included in total energy above)
 Annihilation of the first spin contaminant:
 S**2 before annihilation     1.0225,   after     0.1798
 QCSCF skips out because SCF is already converged.

 **********************************************************************

            Population analysis using the SCF Density.

 **********************************************************************

 Alpha  occ. eigenvalues -- -197.10770-129.99089-129.99086-129.99010-101.62010
 Alpha  occ. eigenvalues --  -22.44446 -19.28526 -19.28516 -19.28454 -19.28450
 Alpha  occ. eigenvalues --  -19.28405 -19.28385 -19.28376 -19.28366 -19.28352
 Alpha  occ. eigenvalues --  -19.28273 -19.28236 -19.28175 -19.26968 -19.26953
 Alpha  occ. eigenvalues --  -19.26940 -19.26898 -19.26896 -19.26891 -19.26867
 Alpha  occ. eigenvalues --  -19.26859 -19.26851 -19.26850 -19.26836 -19.26834
 Alpha  occ. eigenvalues --  -19.26833 -19.26827 -19.26815 -19.26806 -19.26799
 Alpha  occ. eigenvalues --  -19.26791 -19.26780 -19.26779 -19.26774 -19.26727
 Alpha  occ. eigenvalues --  -19.26679 -19.26655 -19.24737 -19.24699 -19.24676
 Alpha  occ. eigenvalues --  -19.24656 -18.94020 -18.92947 -18.92881 -13.36498
 Alpha  occ. eigenvalues --  -13.36485 -13.36413 -10.69424 -10.69420 -10.69420
 Alpha  occ. eigenvalues --  -10.69414 -10.69410 -10.69405 -10.69341 -10.69337
 Alpha  occ. eigenvalues --  -10.69335 -10.33081 -10.32298 -10.32026 -10.31037
 Alpha  occ. eigenvalues --  -10.31030 -10.31026 -10.30590 -10.30549  -9.52418
 Alpha  occ. eigenvalues --   -7.27301  -7.26962  -7.26959  -3.21101  -3.21092
 Alpha  occ. eigenvalues --   -3.21066  -3.21038  -3.21023  -3.21014  -3.21002
 Alpha  occ. eigenvalues --   -3.20995  -3.20993  -3.20854  -3.20846  -3.20825
 Alpha  occ. eigenvalues --   -2.78759  -1.85344  -1.85289  -1.85279  -1.85248
 Alpha  occ. eigenvalues --   -1.85144  -1.85077  -1.85061  -1.85039  -1.85024
 Alpha  occ. eigenvalues --   -1.85018  -1.84995  -1.84948  -1.84393  -1.84280
 Alpha  occ. eigenvalues --   -1.84271  -1.84251  -1.84218  -1.84206  -1.84150
 Alpha  occ. eigenvalues --   -1.84130  -1.84105  -1.84095  -1.84065  -1.84057
 Alpha  occ. eigenvalues --   -1.83954  -1.83915  -1.83884  -1.83880  -1.83861
 Alpha  occ. eigenvalues --   -1.83826  -1.83800  -1.83790  -1.83783  -1.83689
 Alpha  occ. eigenvalues --   -1.83681  -1.83668  -1.81926  -1.81596  -1.81560
 Alpha  occ. eigenvalues --   -1.50201  -1.50193  -1.50126  -1.08619  -1.06999
 Alpha  occ. eigenvalues --   -1.06956  -1.06917  -1.06012  -1.06005  -1.05981
 Alpha  occ. eigenvalues --   -1.04584  -1.04574  -1.04567  -1.03970  -1.03965
 Alpha  occ. eigenvalues --   -1.03700  -1.03363  -1.03332  -1.03312  -1.03051
 Alpha  occ. eigenvalues --   -1.03036  -1.02264  -1.02232  -1.02227  -1.02109
 Alpha  occ. eigenvalues --   -1.02029  -1.02006  -1.01918  -1.01909  -1.01799
 Alpha  occ. eigenvalues --   -1.01774  -1.01756  -1.01620  -1.01584  -1.01579
 Alpha  occ. eigenvalues --   -1.01316  -1.00823  -1.00788  -1.00733  -1.00729
 Alpha  occ. eigenvalues --   -0.99993  -0.99939  -0.99878  -0.96237  -0.89357
 Alpha  occ. eigenvalues --   -0.85644  -0.85643  -0.85581  -0.85500  -0.85489
 Alpha  occ. eigenvalues --   -0.85489  -0.85457  -0.85423  -0.85410  -0.84316
 Alpha  occ. eigenvalues --   -0.82502  -0.80949  -0.71964  -0.69652  -0.65121
 Alpha  occ. eigenvalues --   -0.62319  -0.61709  -0.61650  -0.61623  -0.60675
 Alpha  occ. eigenvalues --   -0.58982  -0.58958  -0.58949  -0.58896  -0.58821
 Alpha  occ. eigenvalues --   -0.58768  -0.58741  -0.58704  -0.58552  -0.57367
 Alpha  occ. eigenvalues --   -0.57328  -0.57294  -0.57011  -0.56816  -0.56499
 Alpha  occ. eigenvalues --   -0.56452  -0.56413  -0.56015  -0.55864  -0.55367
 Alpha  occ. eigenvalues --   -0.55357  -0.55318  -0.54431  -0.54188  -0.54160
 Alpha  occ. eigenvalues --   -0.54004  -0.53681  -0.53625  -0.53616  -0.52790
 Alpha  occ. eigenvalues --   -0.52662  -0.52613  -0.52500  -0.52462  -0.51495
 Alpha  occ. eigenvalues --   -0.51484  -0.51470  -0.51388  -0.51327  -0.50826
 Alpha  occ. eigenvalues --   -0.50575  -0.50542  -0.50490  -0.50409  -0.50346
 Alpha  occ. eigenvalues --   -0.50287  -0.50091  -0.50049  -0.50027  -0.49776
 Alpha  occ. eigenvalues --   -0.49680  -0.49650  -0.49517  -0.49499  -0.49300
 Alpha  occ. eigenvalues --   -0.49258  -0.49203  -0.49116  -0.49063  -0.48988
 Alpha  occ. eigenvalues --   -0.48731  -0.48566  -0.48544  -0.48484  -0.47714
 Alpha  occ. eigenvalues --   -0.47691  -0.47228  -0.46488  -0.46053  -0.46033
 Alpha  occ. eigenvalues --   -0.45886  -0.45876  -0.45763  -0.45638  -0.45228
 Alpha  occ. eigenvalues --   -0.45150  -0.45144  -0.44848  -0.44656  -0.44507
 Alpha  occ. eigenvalues --   -0.44483  -0.44469  -0.44293  -0.44265  -0.44247
 Alpha  occ. eigenvalues --   -0.43430  -0.43178  -0.42564  -0.42536  -0.42467
 Alpha  occ. eigenvalues --   -0.42325  -0.42205  -0.42175  -0.42166  -0.41641
 Alpha  occ. eigenvalues --   -0.41626  -0.41583  -0.41047  -0.41001  -0.40798
 Alpha  occ. eigenvalues --   -0.40784  -0.40771  -0.40426  -0.40411  -0.40373
 Alpha  occ. eigenvalues --   -0.40231  -0.40203  -0.40187  -0.40145  -0.39885
 Alpha  occ. eigenvalues --   -0.39361  -0.39280  -0.39252  -0.39163  -0.39055
 Alpha  occ. eigenvalues --   -0.38957  -0.38925  -0.38836  -0.38759  -0.38716
 Alpha  occ. eigenvalues --   -0.38334  -0.38313  -0.38277  -0.38120  -0.37219
 Alpha  occ. eigenvalues --   -0.37198  -0.34655  -0.34618  -0.33700  -0.30487
 Alpha  occ. eigenvalues --   -0.25720
 Alpha virt. eigenvalues --   -0.11952  -0.06262  -0.06212  -0.04781  -0.04743
 Alpha virt. eigenvalues --   -0.04653  -0.01528  -0.01410  -0.01360  -0.01109
 Alpha virt. eigenvalues --   -0.00927  -0.00897  -0.00859  -0.00164  -0.00092
 Alpha virt. eigenvalues --   -0.00056   0.00678   0.00711   0.00738   0.00909
 Alpha virt. eigenvalues --    0.01012   0.01207   0.01792   0.01838   0.01890
 Alpha virt. eigenvalues --    0.02488   0.02733   0.02794   0.02863   0.03502
 Alpha virt. eigenvalues --    0.03561   0.03724   0.03845   0.03942   0.04304
 Alpha virt. eigenvalues --    0.04330   0.04355   0.04375   0.04598   0.05030
 Alpha virt. eigenvalues --    0.05092   0.05973   0.06448   0.07966   0.08187
 Alpha virt. eigenvalues --    0.08450   0.08588   0.08788   0.08868   0.09299
 Alpha virt. eigenvalues --    0.09708   0.09837   0.09857   0.09913   0.09997
 Alpha virt. eigenvalues --    0.10018   0.10177   0.10345   0.10868   0.10956
 Alpha virt. eigenvalues --    0.11546   0.11620   0.11914   0.12168   0.12247
 Alpha virt. eigenvalues --    0.12417   0.12437   0.12483   0.12865   0.13295
 Alpha virt. eigenvalues --    0.13402   0.13588   0.14074   0.14283   0.14736
 Alpha virt. eigenvalues --    0.14906   0.14949   0.15194   0.15346   0.15876
 Alpha virt. eigenvalues --    0.16093   0.16769   0.17046   0.17679   0.17917
 Alpha virt. eigenvalues --    0.18293   0.18419   0.18585   0.18731   0.18921
 Alpha virt. eigenvalues --    0.19251   0.19351   0.19489   0.19515   0.19562
 Alpha virt. eigenvalues --    0.19683   0.19829   0.20014   0.20646   0.20929
 Alpha virt. eigenvalues --    0.21111   0.21292   0.21315   0.21553   0.21598
 Alpha virt. eigenvalues --    0.21682   0.21891   0.21935   0.22143   0.22195
 Alpha virt. eigenvalues --    0.22361   0.22729   0.23138   0.23157   0.23299
 Alpha virt. eigenvalues --    0.23319   0.23490   0.23747   0.24000   0.24276
 Alpha virt. eigenvalues --    0.24422   0.24624   0.24697   0.25020   0.25067
 Alpha virt. eigenvalues --    0.25358   0.25539   0.25566   0.26241   0.26771
 Alpha virt. eigenvalues --    0.26840   0.27120   0.27322   0.27668   0.27874
 Alpha virt. eigenvalues --    0.27961   0.28486   0.28692   0.28760   0.29220
 Alpha virt. eigenvalues --    0.29270   0.29299   0.29384   0.29537   0.29737
 Alpha virt. eigenvalues --    0.30085   0.30405   0.30715   0.31269   0.31528
 Alpha virt. eigenvalues --    0.31824   0.32213   0.32315   0.32773   0.33102
 Alpha virt. eigenvalues --    0.33607   0.34390   0.35420   0.36986   0.37046
 Alpha virt. eigenvalues --    0.38210   0.38615   0.38943   0.39303   0.39523
 Alpha virt. eigenvalues --    0.40382   0.41357   0.41721   0.41827   0.41925
 Alpha virt. eigenvalues --    0.42170   0.42454   0.42586   0.43385   0.43947
 Alpha virt. eigenvalues --    0.44192   0.44390   0.44838   0.45272   0.45478
 Alpha virt. eigenvalues --    0.45588   0.45728   0.45870   0.46442   0.46682
 Alpha virt. eigenvalues --    0.46927   0.47241   0.47845   0.47891   0.48191
 Alpha virt. eigenvalues --    0.48302   0.48446   0.48758   0.49004   0.49088
 Alpha virt. eigenvalues --    0.49464   0.49785   0.49873   0.49992   0.50013
 Alpha virt. eigenvalues --    0.50229   0.50354   0.50542   0.50674   0.50782
 Alpha virt. eigenvalues --    0.51204   0.51280   0.51678   0.51742   0.51947
 Alpha virt. eigenvalues --    0.52437   0.52700   0.52860   0.52971   0.53296
 Alpha virt. eigenvalues --    0.53773   0.54054   0.54244   0.54478   0.54626
 Alpha virt. eigenvalues --    0.54720   0.55444   0.55977   0.55989   0.56459
 Alpha virt. eigenvalues --    0.56649   0.56879   0.57057   0.57126   0.57616
 Alpha virt. eigenvalues --    0.58283   0.58734   0.58911   0.59138   0.59492
 Alpha virt. eigenvalues --    0.59912   0.60488   0.60754   0.61066   0.61615
 Alpha virt. eigenvalues --    0.61918   0.62817   0.63620   0.63972   0.64672
 Alpha virt. eigenvalues --    0.65027   0.65404   0.66431   0.66598   0.66664
 Alpha virt. eigenvalues --    0.67974   0.68322   0.68330   0.68788   0.69308
 Alpha virt. eigenvalues --    0.69406   0.69946   0.71133   0.71604   0.71691
 Alpha virt. eigenvalues --    0.72108   0.72333   0.72703   0.72915   0.73133
 Alpha virt. eigenvalues --    0.73254   0.73415   0.73547   0.73708   0.73892
 Alpha virt. eigenvalues --    0.74010   0.74232   0.75137   0.75588   0.75924
 Alpha virt. eigenvalues --    0.76033   0.76802   0.77027   0.78103   0.78307
 Alpha virt. eigenvalues --    0.78889   0.79354   0.79925   0.80261   0.80647
 Alpha virt. eigenvalues --    0.80751   0.81117   0.81918   0.82072   0.82288
 Alpha virt. eigenvalues --    0.82995   0.83351   0.83863   0.83924   0.84396
 Alpha virt. eigenvalues --    0.84510   0.84900   0.85363   0.86497   0.87067
 Alpha virt. eigenvalues --    0.88085   0.88217   0.89110   0.89552   0.89948
 Alpha virt. eigenvalues --    0.90236   0.90575   0.90657   0.91007   0.91701
 Alpha virt. eigenvalues --    0.91790   0.92224   0.92523   0.92588   0.92847
 Alpha virt. eigenvalues --    0.93156   0.93240   0.93411   0.93666   0.94616
 Alpha virt. eigenvalues --    0.94938   0.95323   0.95781   0.96646   0.97082
 Alpha virt. eigenvalues --    0.97245   0.97343   0.97579   0.97837   0.98512
 Alpha virt. eigenvalues --    0.99243   0.99444   0.99615   0.99877   1.00338
 Alpha virt. eigenvalues --    1.00468   1.00563   1.00681   1.00842   1.01020
 Alpha virt. eigenvalues --    1.01170   1.01265   1.01747   1.02193   1.02564
 Alpha virt. eigenvalues --    1.02678   1.03020   1.03379   1.03693   1.03877
 Alpha virt. eigenvalues --    1.04175   1.04216   1.04723   1.04858   1.05025
 Alpha virt. eigenvalues --    1.05194   1.05417   1.05544   1.05924   1.06599
 Alpha virt. eigenvalues --    1.06956   1.07039   1.07298   1.07462   1.07519
 Alpha virt. eigenvalues --    1.07785   1.07916   1.08213   1.08490   1.08822
 Alpha virt. eigenvalues --    1.08988   1.09179   1.09475   1.10204   1.10831
 Alpha virt. eigenvalues --    1.11099   1.11297   1.11886   1.12139   1.12306
 Alpha virt. eigenvalues --    1.12455   1.12885   1.13062   1.13124   1.13249
 Alpha virt. eigenvalues --    1.13467   1.13677   1.13788   1.14053   1.14270
 Alpha virt. eigenvalues --    1.14319   1.14723   1.15220   1.15376   1.16025
 Alpha virt. eigenvalues --    1.16365   1.16999   1.17457   1.17813   1.18463
 Alpha virt. eigenvalues --    1.18860   1.19623   1.19780   1.20017   1.20256
 Alpha virt. eigenvalues --    1.20938   1.22310   1.22794   1.22944   1.22987
 Alpha virt. eigenvalues --    1.23158   1.23463   1.23684   1.24172   1.24571
 Alpha virt. eigenvalues --    1.25731   1.26038   1.27124   1.27564   1.27661
 Alpha virt. eigenvalues --    1.28248   1.28955   1.29689   1.29967   1.30309
 Alpha virt. eigenvalues --    1.30553   1.30742   1.30820   1.31088   1.31739
 Alpha virt. eigenvalues --    1.31903   1.32082   1.32225   1.32292   1.32374
 Alpha virt. eigenvalues --    1.32562   1.32740   1.33072   1.33300   1.34386
 Alpha virt. eigenvalues --    1.34732   1.34873   1.34924   1.35434   1.35570
 Alpha virt. eigenvalues --    1.35659   1.35895   1.36185   1.36302   1.36470
 Alpha virt. eigenvalues --    1.36771   1.36943   1.37723   1.37906   1.37941
 Alpha virt. eigenvalues --    1.38179   1.38378   1.38704   1.38752   1.38921
 Alpha virt. eigenvalues --    1.39074   1.39334   1.39483   1.39613   1.39698
 Alpha virt. eigenvalues --    1.40149   1.40249   1.40444   1.40720   1.41006
 Alpha virt. eigenvalues --    1.41113   1.41154   1.41380   1.41699   1.41775
 Alpha virt. eigenvalues --    1.42089   1.42331   1.42510   1.42558   1.42668
 Alpha virt. eigenvalues --    1.43044   1.43300   1.43548   1.43614   1.43965
 Alpha virt. eigenvalues --    1.44361   1.44582   1.44885   1.45296   1.45377
 Alpha virt. eigenvalues --    1.45564   1.45918   1.46056   1.46597   1.47055
 Alpha virt. eigenvalues --    1.47705   1.48097   1.49576   1.49695   1.49849
 Alpha virt. eigenvalues --    1.50217   1.50526   1.51811   1.52306   1.52360
 Alpha virt. eigenvalues --    1.52487   1.53019   1.53313   1.53767   1.55118
 Alpha virt. eigenvalues --    1.55409   1.57439   1.58055   1.58112   1.58237
 Alpha virt. eigenvalues --    1.58530   1.58818   1.59009   1.59380   1.60028
 Alpha virt. eigenvalues --    1.60535   1.60876   1.61299   1.61601   1.61942
 Alpha virt. eigenvalues --    1.62009   1.62108   1.62692   1.63206   1.63947
 Alpha virt. eigenvalues --    1.64531   1.64719   1.64861   1.65367   1.65586
 Alpha virt. eigenvalues --    1.65909   1.66722   1.67982   1.68352   1.69594
 Alpha virt. eigenvalues --    1.70167   1.70672   1.71221   1.72365   1.73189
 Alpha virt. eigenvalues --    1.73246   1.73455   1.74060   1.74202   1.74852
 Alpha virt. eigenvalues --    1.75661   1.76335   1.77541   1.77711   1.77929
 Alpha virt. eigenvalues --    1.78387   1.78464   1.79013   1.79170   1.79553
 Alpha virt. eigenvalues --    1.80000   1.80935   1.81083   1.81496   1.81805
 Alpha virt. eigenvalues --    1.82076   1.82783   1.83499   1.83809   1.84095
 Alpha virt. eigenvalues --    1.84459   1.84775   1.84962   1.85418   1.85862
 Alpha virt. eigenvalues --    1.86033   1.86466   1.86662   1.87215   1.87610
 Alpha virt. eigenvalues --    1.88239   1.88303   1.88669   1.88882   1.89096
 Alpha virt. eigenvalues --    1.89477   1.90261   1.91286   1.92099   1.92644
 Alpha virt. eigenvalues --    1.93084   1.93164   1.93673   1.93771   1.94684
 Alpha virt. eigenvalues --    1.96037   1.96411   1.97633   1.97801   1.98267
 Alpha virt. eigenvalues --    1.98616   2.01584   2.01947   2.02073   2.02231
 Alpha virt. eigenvalues --    2.04723   2.05184   2.07020   2.07733   2.08318
 Alpha virt. eigenvalues --    2.10800   2.11028   2.11503   2.12629   2.13060
 Alpha virt. eigenvalues --    2.13577   2.14652   2.14842   2.15471   2.17471
 Alpha virt. eigenvalues --    2.18307   2.18613   2.19045   2.19199   2.20322
 Alpha virt. eigenvalues --    2.20614   2.20769   2.21664   2.24453   2.26198
 Alpha virt. eigenvalues --    2.26261   2.26823   2.27221   2.28534   2.29630
 Alpha virt. eigenvalues --    2.29992   2.30530   2.31320   2.32326   2.32689
 Alpha virt. eigenvalues --    2.33144   2.33599   2.33790   2.34428   2.34594
 Alpha virt. eigenvalues --    2.34828   2.38652   2.39473   2.41525   2.42792
 Alpha virt. eigenvalues --    2.43346   2.48009   2.49304   2.54402   2.64848
 Alpha virt. eigenvalues --    2.66746   2.67066   2.67078   2.67250   2.67955
 Alpha virt. eigenvalues --    2.68680   2.69130   2.69206   2.69249   2.69544
 Alpha virt. eigenvalues --    2.69584   2.69694   2.69793   2.69857   2.70050
 Alpha virt. eigenvalues --    2.70089   2.70090   2.70514   2.70642   2.70730
 Alpha virt. eigenvalues --    2.70768   2.70840   2.70905   2.71321   2.71558
 Alpha virt. eigenvalues --    2.71706   2.72031   2.72765   2.72789   2.72953
 Alpha virt. eigenvalues --    2.73157   2.73264   2.73497   2.73602   2.73664
 Alpha virt. eigenvalues --    2.73799   2.74198   2.74264   2.74297   2.75331
 Alpha virt. eigenvalues --    2.75430   2.75495   2.75600   2.75660   2.75662
 Alpha virt. eigenvalues --    2.75836   2.75868   2.76024   2.76075   2.76154
 Alpha virt. eigenvalues --    2.76235   2.76377   2.76480   2.76880   2.77373
 Alpha virt. eigenvalues --    2.77458   2.77650   2.78012   2.78275   2.78466
 Alpha virt. eigenvalues --    2.78637   2.79041   2.79357   2.79515   2.79615
 Alpha virt. eigenvalues --    2.79704   2.79792   2.79994   2.80237   2.81101
 Alpha virt. eigenvalues --    2.82122   2.82337   2.82483   2.82626   2.82724
 Alpha virt. eigenvalues --    2.82896   2.83038   2.83440   2.83841   2.84682
 Alpha virt. eigenvalues --    2.84735   2.85096   2.85316   2.85581   2.85715
 Alpha virt. eigenvalues --    2.85903   2.86070   2.86414   2.87169   2.87387
 Alpha virt. eigenvalues --    2.87621   2.88398   2.88579   2.88673   2.88772
 Alpha virt. eigenvalues --    2.88812   2.89337   2.89345   2.89385   2.90157
 Alpha virt. eigenvalues --    2.90941   2.91062   2.92059   2.92125   2.92210
 Alpha virt. eigenvalues --    2.92691   2.92760   2.92769   2.93057   2.93141
 Alpha virt. eigenvalues --    2.93645   2.94025   2.94432   2.94540   2.94726
 Alpha virt. eigenvalues --    2.94803   2.94837   2.95095   2.95306   2.95703
 Alpha virt. eigenvalues --    2.95846   2.96032   2.96080   2.96343   2.96413
 Alpha virt. eigenvalues --    2.96548   2.96718   2.96791   2.97197   2.97371
 Alpha virt. eigenvalues --    2.97524   2.98032   2.98184   2.98262   2.98950
 Alpha virt. eigenvalues --    2.99061   2.99110   2.99449   2.99585   2.99739
 Alpha virt. eigenvalues --    2.99895   3.00189   3.00378   3.00678   3.00778
 Alpha virt. eigenvalues --    3.01359   3.01538   3.01858   3.02259   3.02356
 Alpha virt. eigenvalues --    3.02565   3.02833   3.03305   3.03991   3.07047
 Alpha virt. eigenvalues --    3.08327   3.08646   3.08675   3.08718   3.09133
 Alpha virt. eigenvalues --    3.09770   3.09996   3.10070   3.10188   3.13918
 Alpha virt. eigenvalues --    3.13993   3.14049   3.14702   3.14938   3.15152
 Alpha virt. eigenvalues --    3.16469   3.16551   3.16816   3.22187   3.27733
 Alpha virt. eigenvalues --    3.29373   3.29588   3.30112   3.42897   3.43280
 Alpha virt. eigenvalues --    3.43826   3.44820   3.45567   3.46564   3.46698
 Alpha virt. eigenvalues --    3.47655   3.48040   3.48176   3.49088   3.49263
 Alpha virt. eigenvalues --    3.49686   3.53158   3.53899   3.54275   3.55494
 Alpha virt. eigenvalues --    3.55794   3.56336   3.56722   3.57231   3.57259
 Alpha virt. eigenvalues --    3.57449   3.57502   3.57679   3.58544   3.59490
 Alpha virt. eigenvalues --    3.59733   3.61010   3.61459   3.61699   3.62225
 Alpha virt. eigenvalues --    3.62704   3.63308   3.63686   3.64031   3.64481
 Alpha virt. eigenvalues --    3.73036   3.77296  68.66698  68.67674  68.68752
 Alpha virt. eigenvalues --   68.70814  68.74779  68.75923  68.83719  68.84673
 Alpha virt. eigenvalues --   68.85271  68.87860  68.89021  68.90109 576.25148
 Alpha virt. eigenvalues --  576.26103 576.27159 576.29172 576.33150 576.34269
 Alpha virt. eigenvalues --  576.41922 576.42858 576.43433 576.45932 576.47065
 Alpha virt. eigenvalues --  576.48142
  Beta  occ. eigenvalues -- -197.10753-129.99089-129.99086-129.99010-101.62407
  Beta  occ. eigenvalues --  -22.43183 -19.28527 -19.28517 -19.28455 -19.28446
  Beta  occ. eigenvalues --  -19.28399 -19.28379 -19.28370 -19.28360 -19.28346
  Beta  occ. eigenvalues --  -19.28274 -19.28238 -19.28169 -19.26969 -19.26952
  Beta  occ. eigenvalues --  -19.26940 -19.26898 -19.26896 -19.26891 -19.26866
  Beta  occ. eigenvalues --  -19.26860 -19.26852 -19.26849 -19.26836 -19.26834
  Beta  occ. eigenvalues --  -19.26833 -19.26828 -19.26816 -19.26808 -19.26804
  Beta  occ. eigenvalues --  -19.26791 -19.26782 -19.26779 -19.26774 -19.26726
  Beta  occ. eigenvalues --  -19.26678 -19.26655 -19.24714 -19.24680 -19.24651
  Beta  occ. eigenvalues --  -19.24631 -18.93674 -18.91517 -18.91387 -13.36498
  Beta  occ. eigenvalues --  -13.36485 -13.36413 -10.69424 -10.69420 -10.69420
  Beta  occ. eigenvalues --  -10.69414 -10.69410 -10.69405 -10.69341 -10.69337
  Beta  occ. eigenvalues --  -10.69335 -10.33369 -10.32413 -10.31973 -10.31157
  Beta  occ. eigenvalues --  -10.31143 -10.31130 -10.30529 -10.30488  -9.52864
  Beta  occ. eigenvalues --   -7.28700  -7.27266  -7.27263  -3.21097  -3.21089
  Beta  occ. eigenvalues --   -3.21066  -3.21032  -3.21022  -3.21007  -3.20996
  Beta  occ. eigenvalues --   -3.20989  -3.20987  -3.20854  -3.20841  -3.20820
  Beta  occ. eigenvalues --   -2.74698  -1.85339  -1.85284  -1.85274  -1.85239
  Beta  occ. eigenvalues --   -1.85139  -1.85071  -1.85057  -1.85032  -1.85017
  Beta  occ. eigenvalues --   -1.85009  -1.84990  -1.84940  -1.84390  -1.84278
  Beta  occ. eigenvalues --   -1.84268  -1.84249  -1.84215  -1.84202  -1.84147
  Beta  occ. eigenvalues --   -1.84128  -1.84101  -1.84092  -1.84062  -1.84054
  Beta  occ. eigenvalues --   -1.83952  -1.83912  -1.83882  -1.83877  -1.83858
  Beta  occ. eigenvalues --   -1.83824  -1.83797  -1.83787  -1.83780  -1.83686
  Beta  occ. eigenvalues --   -1.83678  -1.83665  -1.80586  -1.75973  -1.75691
  Beta  occ. eigenvalues --   -1.50201  -1.50193  -1.50126  -1.08602  -1.06977
  Beta  occ. eigenvalues --   -1.06936  -1.06892  -1.06010  -1.06003  -1.05979
  Beta  occ. eigenvalues --   -1.04585  -1.04575  -1.04566  -1.03970  -1.03966
  Beta  occ. eigenvalues --   -1.03633  -1.03330  -1.03294  -1.03281  -1.03049
  Beta  occ. eigenvalues --   -1.03028  -1.02245  -1.02212  -1.02205  -1.02101
  Beta  occ. eigenvalues --   -1.02025  -1.01993  -1.01912  -1.01896  -1.01794
  Beta  occ. eigenvalues --   -1.01772  -1.01752  -1.01614  -1.01582  -1.01563
  Beta  occ. eigenvalues --   -1.01316  -1.00799  -1.00771  -1.00732  -1.00728
  Beta  occ. eigenvalues --   -0.99856  -0.99798  -0.99756  -0.96472  -0.90042
  Beta  occ. eigenvalues --   -0.85644  -0.85643  -0.85581  -0.85500  -0.85489
  Beta  occ. eigenvalues --   -0.85489  -0.85457  -0.85423  -0.85410  -0.84570
  Beta  occ. eigenvalues --   -0.84371  -0.82712  -0.72226  -0.69776  -0.65376
  Beta  occ. eigenvalues --   -0.62319  -0.61708  -0.61649  -0.61622  -0.60889
  Beta  occ. eigenvalues --   -0.58978  -0.58956  -0.58948  -0.58805  -0.58769
  Beta  occ. eigenvalues --   -0.58740  -0.58726  -0.58679  -0.58552  -0.57337
  Beta  occ. eigenvalues --   -0.57181  -0.57126  -0.57040  -0.56925  -0.56500
  Beta  occ. eigenvalues --   -0.56421  -0.56376  -0.55819  -0.55608  -0.55346
  Beta  occ. eigenvalues --   -0.55336  -0.55321  -0.54634  -0.54180  -0.54151
  Beta  occ. eigenvalues --   -0.53991  -0.53650  -0.53605  -0.53568  -0.52860
  Beta  occ. eigenvalues --   -0.52664  -0.52599  -0.52480  -0.52457  -0.51483
  Beta  occ. eigenvalues --   -0.51458  -0.51450  -0.51327  -0.51266  -0.51029
  Beta  occ. eigenvalues --   -0.50567  -0.50476  -0.50470  -0.50343  -0.50248
  Beta  occ. eigenvalues --   -0.50184  -0.50059  -0.50048  -0.49994  -0.49724
  Beta  occ. eigenvalues --   -0.49659  -0.49618  -0.49507  -0.49489  -0.49299
  Beta  occ. eigenvalues --   -0.49235  -0.49203  -0.49083  -0.49045  -0.48964
  Beta  occ. eigenvalues --   -0.48724  -0.48563  -0.48542  -0.48477  -0.47913
  Beta  occ. eigenvalues --   -0.47674  -0.47628  -0.46065  -0.45910  -0.45879
  Beta  occ. eigenvalues --   -0.45815  -0.45680  -0.45578  -0.45228  -0.45169
  Beta  occ. eigenvalues --   -0.45151  -0.45058  -0.44847  -0.44655  -0.44480
  Beta  occ. eigenvalues --   -0.44462  -0.44437  -0.44283  -0.44234  -0.44210
  Beta  occ. eigenvalues --   -0.43423  -0.43286  -0.42517  -0.42476  -0.42434
  Beta  occ. eigenvalues --   -0.42296  -0.42251  -0.42139  -0.42128  -0.41642
  Beta  occ. eigenvalues --   -0.41613  -0.41563  -0.41439  -0.41051  -0.40964
  Beta  occ. eigenvalues --   -0.40772  -0.40735  -0.40707  -0.40411  -0.40399
  Beta  occ. eigenvalues --   -0.40358  -0.40185  -0.40173  -0.40159  -0.39827
  Beta  occ. eigenvalues --   -0.39657  -0.39360  -0.39184  -0.39119  -0.39115
  Beta  occ. eigenvalues --   -0.38930  -0.38894  -0.38840  -0.38742  -0.38708
  Beta  occ. eigenvalues --   -0.38668  -0.38328  -0.38305  -0.38272  -0.37622
  Beta  occ. eigenvalues --   -0.37220  -0.37194  -0.35582  -0.35541  -0.33991
  Beta  occ. eigenvalues --   -0.30873
  Beta virt. eigenvalues --   -0.06261  -0.06212  -0.04780  -0.04742  -0.04652
  Beta virt. eigenvalues --   -0.01524  -0.01405  -0.01355  -0.01103  -0.00922
  Beta virt. eigenvalues --   -0.00892  -0.00855  -0.00155  -0.00080  -0.00047
  Beta virt. eigenvalues --    0.00686   0.00721   0.00748   0.00913   0.01013
  Beta virt. eigenvalues --    0.01542   0.01857   0.01871   0.01910   0.02498
  Beta virt. eigenvalues --    0.02775   0.02837   0.02867   0.03508   0.03681
  Beta virt. eigenvalues --    0.03781   0.04024   0.04045   0.04310   0.04337
  Beta virt. eigenvalues --    0.04370   0.04395   0.04604   0.05033   0.05105
  Beta virt. eigenvalues --    0.05564   0.06470   0.07232   0.08483   0.08549
  Beta virt. eigenvalues --    0.08605   0.08652   0.09338   0.09458   0.09604
  Beta virt. eigenvalues --    0.09832   0.09901   0.10032   0.10040   0.10095
  Beta virt. eigenvalues --    0.10143   0.10345   0.10551   0.10883   0.10964
  Beta virt. eigenvalues --    0.11426   0.11594   0.11662   0.11935   0.12184
  Beta virt. eigenvalues --    0.12352   0.12438   0.12494   0.12533   0.13314
  Beta virt. eigenvalues --    0.13414   0.13595   0.14053   0.14277   0.14797
  Beta virt. eigenvalues --    0.14952   0.15042   0.15218   0.15351   0.15880
  Beta virt. eigenvalues --    0.16073   0.16720   0.17057   0.17670   0.17901
  Beta virt. eigenvalues --    0.18295   0.18421   0.18602   0.18757   0.18936
  Beta virt. eigenvalues --    0.19301   0.19389   0.19505   0.19537   0.19626
  Beta virt. eigenvalues --    0.19903   0.19994   0.20394   0.20655   0.20933
  Beta virt. eigenvalues --    0.21112   0.21295   0.21306   0.21559   0.21599
  Beta virt. eigenvalues --    0.21688   0.21912   0.21954   0.22151   0.22193
  Beta virt. eigenvalues --    0.22369   0.22734   0.23093   0.23162   0.23288
  Beta virt. eigenvalues --    0.23315   0.23502   0.23721   0.23968   0.24230
  Beta virt. eigenvalues --    0.24302   0.24619   0.24701   0.24979   0.25076
  Beta virt. eigenvalues --    0.25349   0.25528   0.25546   0.26118   0.26771
  Beta virt. eigenvalues --    0.26840   0.27115   0.27305   0.27643   0.27871
  Beta virt. eigenvalues --    0.27963   0.28455   0.28686   0.28761   0.29203
  Beta virt. eigenvalues --    0.29264   0.29307   0.29384   0.29541   0.29736
  Beta virt. eigenvalues --    0.30079   0.30396   0.30718   0.31275   0.31528
  Beta virt. eigenvalues --    0.31825   0.32217   0.32316   0.32776   0.33134
  Beta virt. eigenvalues --    0.33564   0.34392   0.35180   0.36982   0.37025
  Beta virt. eigenvalues --    0.38187   0.38740   0.38927   0.39343   0.39529
  Beta virt. eigenvalues --    0.40269   0.41363   0.41759   0.41903   0.42002
  Beta virt. eigenvalues --    0.42198   0.42469   0.42701   0.43415   0.44049
  Beta virt. eigenvalues --    0.44213   0.44467   0.44865   0.45253   0.45483
  Beta virt. eigenvalues --    0.45650   0.45776   0.45865   0.46440   0.46667
  Beta virt. eigenvalues --    0.46910   0.47219   0.47781   0.47890   0.48169
  Beta virt. eigenvalues --    0.48297   0.48311   0.48739   0.49000   0.49074
  Beta virt. eigenvalues --    0.49458   0.49776   0.49860   0.49904   0.50013
  Beta virt. eigenvalues --    0.50112   0.50353   0.50508   0.50671   0.50734
  Beta virt. eigenvalues --    0.51203   0.51278   0.51628   0.51738   0.51936
  Beta virt. eigenvalues --    0.52431   0.52626   0.52817   0.52965   0.53265
  Beta virt. eigenvalues --    0.53744   0.54012   0.54227   0.54460   0.54611
  Beta virt. eigenvalues --    0.54714   0.55401   0.55997   0.56055   0.56465
  Beta virt. eigenvalues --    0.56582   0.56817   0.57044   0.57130   0.57571
  Beta virt. eigenvalues --    0.57987   0.58744   0.58851   0.59010   0.59475
  Beta virt. eigenvalues --    0.59907   0.60536   0.60703   0.61004   0.61606
  Beta virt. eigenvalues --    0.61926   0.62740   0.63525   0.64150   0.64590
  Beta virt. eigenvalues --    0.65031   0.65227   0.66403   0.66583   0.66650
  Beta virt. eigenvalues --    0.67663   0.68196   0.68324   0.68754   0.69045
  Beta virt. eigenvalues --    0.69601   0.70102   0.70631   0.71333   0.71685
  Beta virt. eigenvalues --    0.71914   0.72292   0.72615   0.72806   0.73138
  Beta virt. eigenvalues --    0.73213   0.73373   0.73522   0.73642   0.73703
  Beta virt. eigenvalues --    0.73952   0.74101   0.74888   0.75450   0.75661
  Beta virt. eigenvalues --    0.76047   0.76881   0.76974   0.77917   0.78166
  Beta virt. eigenvalues --    0.78906   0.79329   0.79997   0.80579   0.80675
  Beta virt. eigenvalues --    0.81076   0.81185   0.81931   0.82067   0.82253
  Beta virt. eigenvalues --    0.82995   0.83313   0.83837   0.83854   0.84289
  Beta virt. eigenvalues --    0.84517   0.84890   0.85381   0.86426   0.87049
  Beta virt. eigenvalues --    0.87462   0.88113   0.88357   0.89413   0.89571
  Beta virt. eigenvalues --    0.89811   0.90259   0.90383   0.90845   0.90990
  Beta virt. eigenvalues --    0.91633   0.91737   0.91945   0.92288   0.92422
  Beta virt. eigenvalues --    0.92580   0.93139   0.93320   0.93391   0.93695
  Beta virt. eigenvalues --    0.94897   0.95139   0.95470   0.95775   0.96642
  Beta virt. eigenvalues --    0.97074   0.97282   0.97769   0.97952   0.98477
  Beta virt. eigenvalues --    0.99202   0.99408   0.99620   0.99798   1.00168
  Beta virt. eigenvalues --    1.00371   1.00470   1.00666   1.00835   1.01052
  Beta virt. eigenvalues --    1.01213   1.01293   1.01769   1.02196   1.02542
  Beta virt. eigenvalues --    1.02583   1.02742   1.03395   1.03693   1.03867
  Beta virt. eigenvalues --    1.04000   1.04221   1.04735   1.04874   1.05006
  Beta virt. eigenvalues --    1.05210   1.05456   1.05601   1.05938   1.06631
  Beta virt. eigenvalues --    1.07021   1.07068   1.07351   1.07518   1.07648
  Beta virt. eigenvalues --    1.07837   1.07920   1.08372   1.08755   1.08871
  Beta virt. eigenvalues --    1.09027   1.09347   1.09486   1.10216   1.10832
  Beta virt. eigenvalues --    1.11100   1.11303   1.11893   1.12150   1.12310
  Beta virt. eigenvalues --    1.12466   1.12851   1.13071   1.13120   1.13259
  Beta virt. eigenvalues --    1.13466   1.13675   1.13800   1.14039   1.14199
  Beta virt. eigenvalues --    1.14485   1.14761   1.15202   1.15385   1.16021
  Beta virt. eigenvalues --    1.16350   1.16857   1.17462   1.17816   1.18456
  Beta virt. eigenvalues --    1.18949   1.19637   1.19825   1.20024   1.20340
  Beta virt. eigenvalues --    1.20995   1.22233   1.22677   1.22952   1.22984
  Beta virt. eigenvalues --    1.23106   1.23201   1.23594   1.23712   1.24541
  Beta virt. eigenvalues --    1.25474   1.25816   1.27124   1.27483   1.27650
  Beta virt. eigenvalues --    1.28244   1.28968   1.29547   1.29955   1.30298
  Beta virt. eigenvalues --    1.30534   1.30794   1.30815   1.31067   1.31776
  Beta virt. eigenvalues --    1.31941   1.32077   1.32150   1.32282   1.32345
  Beta virt. eigenvalues --    1.32540   1.32697   1.33050   1.33153   1.34105
  Beta virt. eigenvalues --    1.34618   1.34761   1.34923   1.35448   1.35509
  Beta virt. eigenvalues --    1.35651   1.35857   1.36009   1.36305   1.36468
  Beta virt. eigenvalues --    1.36771   1.36877   1.37691   1.37894   1.37950
  Beta virt. eigenvalues --    1.38208   1.38398   1.38735   1.38746   1.38956
  Beta virt. eigenvalues --    1.39038   1.39299   1.39487   1.39621   1.39697
  Beta virt. eigenvalues --    1.40131   1.40222   1.40464   1.40743   1.41039
  Beta virt. eigenvalues --    1.41120   1.41172   1.41383   1.41696   1.41765
  Beta virt. eigenvalues --    1.42094   1.42318   1.42514   1.42558   1.42662
  Beta virt. eigenvalues --    1.43057   1.43302   1.43557   1.43626   1.43975
  Beta virt. eigenvalues --    1.44369   1.44594   1.44828   1.45307   1.45387
  Beta virt. eigenvalues --    1.45566   1.45899   1.46048   1.46667   1.47052
  Beta virt. eigenvalues --    1.47717   1.48103   1.49586   1.49706   1.49859
  Beta virt. eigenvalues --    1.50230   1.50540   1.51834   1.52312   1.52378
  Beta virt. eigenvalues --    1.52498   1.53035   1.53329   1.53789   1.55140
  Beta virt. eigenvalues --    1.55416   1.57444   1.58083   1.58133   1.58252
  Beta virt. eigenvalues --    1.58563   1.58837   1.59035   1.59416   1.60041
  Beta virt. eigenvalues --    1.60550   1.60896   1.61313   1.61609   1.61946
  Beta virt. eigenvalues --    1.62008   1.62120   1.62703   1.63203   1.64004
  Beta virt. eigenvalues --    1.64675   1.64856   1.64978   1.65507   1.65616
  Beta virt. eigenvalues --    1.65997   1.66797   1.68143   1.68424   1.69644
  Beta virt. eigenvalues --    1.70205   1.70707   1.71206   1.72173   1.73192
  Beta virt. eigenvalues --    1.73244   1.73479   1.74063   1.74239   1.74844
  Beta virt. eigenvalues --    1.75616   1.76261   1.77522   1.77698   1.77832
  Beta virt. eigenvalues --    1.78213   1.78438   1.79018   1.79163   1.79561
  Beta virt. eigenvalues --    1.79932   1.80945   1.81076   1.81497   1.81758
  Beta virt. eigenvalues --    1.82055   1.82681   1.83490   1.83833   1.84066
  Beta virt. eigenvalues --    1.84384   1.84745   1.84928   1.85431   1.85842
  Beta virt. eigenvalues --    1.86022   1.86503   1.86670   1.87216   1.87611
  Beta virt. eigenvalues --    1.88098   1.88240   1.88574   1.88776   1.89097
  Beta virt. eigenvalues --    1.89496   1.90285   1.91294   1.91971   1.92642
  Beta virt. eigenvalues --    1.93127   1.93141   1.93706   1.93748   1.94696
  Beta virt. eigenvalues --    1.96068   1.96327   1.97656   1.97847   1.98346
  Beta virt. eigenvalues --    1.98646   2.01464   2.01996   2.02098   2.02244
  Beta virt. eigenvalues --    2.04530   2.05064   2.06933   2.07334   2.08266
  Beta virt. eigenvalues --    2.10812   2.11045   2.11519   2.11971   2.13020
  Beta virt. eigenvalues --    2.13598   2.14666   2.14860   2.15526   2.17495
  Beta virt. eigenvalues --    2.18060   2.18513   2.19057   2.19188   2.20291
  Beta virt. eigenvalues --    2.20733   2.20949   2.21797   2.24379   2.26259
  Beta virt. eigenvalues --    2.26568   2.27033   2.27615   2.29289   2.29901
  Beta virt. eigenvalues --    2.30319   2.30771   2.31187   2.32706   2.33119
  Beta virt. eigenvalues --    2.33491   2.34107   2.34298   2.34889   2.35675
  Beta virt. eigenvalues --    2.36231   2.38345   2.39299   2.41411   2.42647
  Beta virt. eigenvalues --    2.43408   2.47498   2.49021   2.53774   2.64533
  Beta virt. eigenvalues --    2.66462   2.67063   2.67074   2.67213   2.67952
  Beta virt. eigenvalues --    2.68524   2.69131   2.69202   2.69239   2.69545
  Beta virt. eigenvalues --    2.69585   2.69696   2.69796   2.69858   2.70062
  Beta virt. eigenvalues --    2.70093   2.70113   2.70414   2.70665   2.70744
  Beta virt. eigenvalues --    2.70771   2.70857   2.70872   2.71311   2.71562
  Beta virt. eigenvalues --    2.71709   2.72031   2.72768   2.72794   2.72958
  Beta virt. eigenvalues --    2.73179   2.73285   2.73451   2.73509   2.73611
  Beta virt. eigenvalues --    2.73757   2.74206   2.74261   2.74299   2.75341
  Beta virt. eigenvalues --    2.75438   2.75499   2.75608   2.75666   2.75668
  Beta virt. eigenvalues --    2.75847   2.75878   2.76029   2.76082   2.76161
  Beta virt. eigenvalues --    2.76241   2.76381   2.76485   2.76883   2.77391
  Beta virt. eigenvalues --    2.77478   2.77685   2.78036   2.78301   2.78477
  Beta virt. eigenvalues --    2.78658   2.79046   2.79391   2.79543   2.79588
  Beta virt. eigenvalues --    2.79703   2.79793   2.79968   2.80223   2.81104
  Beta virt. eigenvalues --    2.82186   2.82351   2.82528   2.82643   2.82727
  Beta virt. eigenvalues --    2.82911   2.83077   2.83432   2.83833   2.84696
  Beta virt. eigenvalues --    2.84751   2.85120   2.85284   2.85433   2.85724
  Beta virt. eigenvalues --    2.85909   2.86067   2.86419   2.87195   2.87417
  Beta virt. eigenvalues --    2.87650   2.88405   2.88580   2.88677   2.88775
  Beta virt. eigenvalues --    2.88815   2.89360   2.89370   2.89388   2.90160
  Beta virt. eigenvalues --    2.90956   2.91084   2.92069   2.92132   2.92218
  Beta virt. eigenvalues --    2.92705   2.92766   2.92786   2.93087   2.93176
  Beta virt. eigenvalues --    2.93672   2.94024   2.94443   2.94538   2.94632
  Beta virt. eigenvalues --    2.94795   2.94855   2.95077   2.95299   2.95713
  Beta virt. eigenvalues --    2.95860   2.96057   2.96095   2.96348   2.96422
  Beta virt. eigenvalues --    2.96534   2.96670   2.96783   2.97207   2.97382
  Beta virt. eigenvalues --    2.97529   2.98050   2.98199   2.98270   2.98829
  Beta virt. eigenvalues --    2.99007   2.99077   2.99468   2.99619   2.99778
  Beta virt. eigenvalues --    2.99935   3.00206   3.00453   3.00737   3.00839
  Beta virt. eigenvalues --    3.01382   3.01551   3.01866   3.02277   3.02392
  Beta virt. eigenvalues --    3.02579   3.02851   3.03321   3.04003   3.07051
  Beta virt. eigenvalues --    3.08471   3.08591   3.08695   3.08766   3.09151
  Beta virt. eigenvalues --    3.09903   3.10335   3.10369   3.11043   3.13929
  Beta virt. eigenvalues --    3.14000   3.14057   3.14680   3.14848   3.15163
  Beta virt. eigenvalues --    3.16480   3.16564   3.16890   3.22117   3.28219
  Beta virt. eigenvalues --    3.29956   3.30519   3.30780   3.42901   3.43286
  Beta virt. eigenvalues --    3.43828   3.44823   3.45364   3.46568   3.46707
  Beta virt. eigenvalues --    3.47660   3.48042   3.48179   3.49090   3.49265
  Beta virt. eigenvalues --    3.49689   3.53164   3.53920   3.54293   3.55500
  Beta virt. eigenvalues --    3.55802   3.56349   3.56732   3.57244   3.57278
  Beta virt. eigenvalues --    3.57481   3.57521   3.57716   3.58556   3.59493
  Beta virt. eigenvalues --    3.59738   3.61031   3.61465   3.61705   3.62229
  Beta virt. eigenvalues --    3.62707   3.63313   3.63689   3.64034   3.64487
  Beta virt. eigenvalues --    3.72963   3.77527  68.66700  68.67675  68.68753
  Beta virt. eigenvalues --   68.70815  68.74780  68.75925  68.83721  68.84674
  Beta virt. eigenvalues --   68.85273  68.87862  68.89022  68.90111 576.25178
  Beta virt. eigenvalues --  576.26128 576.27186 576.29199 576.33167 576.34310
  Beta virt. eigenvalues --  576.41953 576.42879 576.43467 576.45965 576.47086
  Beta virt. eigenvalues --  576.48175
          Condensed to atoms (all electrons):
          Atomic-Atomic Spin Densities.
 Mulliken charges and spin densities:
               1          2
     1  Cl  -0.355409  -0.600150
     2  C   -0.035985  -0.099027
     3  C    0.011576   0.060407
     4  C   -0.035147  -0.094671
     5  C   -0.032039   0.060157
     6  C    0.009224  -0.118699
     7  C   -0.047230   0.060492
     8  H    0.050131   0.004271
     9  H    0.051187   0.004053
    10  H    0.056325  -0.002145
    11  H    0.057598   0.005201
    12  H    0.054433  -0.002121
    13  C    0.006135  -0.269391
    14  C   -0.038647  -0.017314
    15  H    0.076586   0.011011
    16  H    0.094884   0.000952
    17  H    0.089910  -0.001527
    18  O   -0.671332  -0.000562
    19  O   -0.669607  -0.000520
    20  O   -0.665835  -0.001500
    21  O   -0.671973  -0.000540
    22  W    1.713980   0.000352
    23  W    1.657859   0.000482
    24  W    1.670296   0.000162
    25  W    1.679526   0.000221
    26  W    1.660809   0.002723
    27  W    1.708052   0.002453
    28  W    1.607657   0.003327
    29  W    1.669693   0.002811
    30  O   -0.350247  -0.000525
    31  O   -0.394045  -0.000568
    32  O   -0.395449  -0.000615
    33  O   -0.387259  -0.000566
    34  O   -0.670624  -0.000290
    35  O   -0.677386  -0.000025
    36  O   -0.669141  -0.000133
    37  O   -0.671414  -0.000197
    38  O   -0.397018   0.002117
    39  O   -0.395720   0.002165
    40  O   -0.341077   0.000447
    41  O   -0.394773   0.002145
    42  O   -0.676943   0.000051
    43  O   -0.671560   0.000154
    44  O   -0.667014   0.000271
    45  O   -0.673761   0.000098
    46  O   -0.396922   0.002278
    47  O   -0.351993   0.002144
    48  O   -0.393606   0.001783
    49  O   -0.393302   0.002300
    50  W    1.656632   0.002843
    51  W    1.662392   0.002745
    52  W    1.676110   0.003896
    53  W    1.668412   0.002692
    54  O   -0.722443   0.000096
    55  O   -0.704502   0.000004
    56  O   -0.721551   0.000136
    57  O   -0.720480   0.000067
    58  O   -0.701851   0.000079
    59  O   -0.722583   0.000160
    60  O   -0.722147   0.000213
    61  O   -0.716979   0.000202
    62  O   -0.722363  -0.000180
    63  O   -0.704496  -0.000056
    64  O   -0.724318  -0.000193
    65  O   -0.723555  -0.000199
    66  O   -0.883299   0.005273
    67  O   -0.883408   0.007297
    68  O   -0.880782   0.007267
    69  O   -0.888130   0.006571
    70  K    0.851052   0.000194
    71  K    0.848147   0.000222
    72  K    0.847789   0.000217
    73  V    1.198953   0.936519
 Sum of Mulliken charges =  -1.00000   0.00000
 Mulliken charges and spin densities with hydrogens summed into heavy atoms:
               1          2
     1  Cl  -0.355409  -0.600150
     2  C    0.014145  -0.094756
     3  C    0.011576   0.060407
     4  C    0.016039  -0.090619
     5  C    0.024286   0.058012
     6  C    0.066822  -0.113498
     7  C    0.007203   0.058370
    13  C    0.082721  -0.258380
    14  C    0.146148  -0.017890
    18  O   -0.671332  -0.000562
    19  O   -0.669607  -0.000520
    20  O   -0.665835  -0.001500
    21  O   -0.671973  -0.000540
    22  W    1.713980   0.000352
    23  W    1.657859   0.000482
    24  W    1.670296   0.000162
    25  W    1.679526   0.000221
    26  W    1.660809   0.002723
    27  W    1.708052   0.002453
    28  W    1.607657   0.003327
    29  W    1.669693   0.002811
    30  O   -0.350247  -0.000525
    31  O   -0.394045  -0.000568
    32  O   -0.395449  -0.000615
    33  O   -0.387259  -0.000566
    34  O   -0.670624  -0.000290
    35  O   -0.677386  -0.000025
    36  O   -0.669141  -0.000133
    37  O   -0.671414  -0.000197
    38  O   -0.397018   0.002117
    39  O   -0.395720   0.002165
    40  O   -0.341077   0.000447
    41  O   -0.394773   0.002145
    42  O   -0.676943   0.000051
    43  O   -0.671560   0.000154
    44  O   -0.667014   0.000271
    45  O   -0.673761   0.000098
    46  O   -0.396922   0.002278
    47  O   -0.351993   0.002144
    48  O   -0.393606   0.001783
    49  O   -0.393302   0.002300
    50  W    1.656632   0.002843
    51  W    1.662392   0.002745
    52  W    1.676110   0.003896
    53  W    1.668412   0.002692
    54  O   -0.722443   0.000096
    55  O   -0.704502   0.000004
    56  O   -0.721551   0.000136
    57  O   -0.720480   0.000067
    58  O   -0.701851   0.000079
    59  O   -0.722583   0.000160
    60  O   -0.722147   0.000213
    61  O   -0.716979   0.000202
    62  O   -0.722363  -0.000180
    63  O   -0.704496  -0.000056
    64  O   -0.724318  -0.000193
    65  O   -0.723555  -0.000199
    66  O   -0.883299   0.005273
    67  O   -0.883408   0.007297
    68  O   -0.880782   0.007267
    69  O   -0.888130   0.006571
    70  K    0.851052   0.000194
    71  K    0.848147   0.000222
    72  K    0.847789   0.000217
    73  V    1.198953   0.936519
 Electronic spatial extent (au):  <R**2>=         316866.2673
 Charge=             -1.0000 electrons
 Dipole moment (field-independent basis, Debye):
    X=             27.8574    Y=            -13.8223    Z=            -30.8428  Tot=             43.7992
 Quadrupole moment (field-independent basis, Debye-Ang):
   XX=           -757.3287   YY=           -711.5396   ZZ=           -784.8585
   XY=            127.2551   XZ=            172.5477   YZ=            -94.2474
 Traceless Quadrupole moment (field-independent basis, Debye-Ang):
   XX=             -6.0865   YY=             39.7027   ZZ=            -33.6162
   XY=            127.2551   XZ=            172.5477   YZ=            -94.2474
 Octapole moment (field-independent basis, Debye-Ang**2):
  XXX=          10113.2949  YYY=            843.9264  ZZZ=         -17476.1783  XYY=           4138.2119
  XXY=           -594.7121  XXZ=          -6009.0811  XZZ=           4014.4717  YZZ=           -129.0504
  YYZ=          -7110.4957  XYZ=           1396.2106
 Hexadecapole moment (field-independent basis, Debye-Ang**3):
 XXXX=        -123914.0319 YYYY=         -41019.4741 ZZZZ=        -326613.4304 XXXY=           7599.4774
 XXXZ=          85704.5631 YYYX=           3228.3159 YYYZ=           7085.2467 ZZZX=          89607.7824
 ZZZY=           7943.6601 XXYY=         -36119.3143 XXZZ=         -69379.9533 YYZZ=         -79048.1877
 XXYZ=         -10281.0572 YYXZ=          40883.1175 ZZXY=          14308.5809
 N-N= 2.096463805524D+04 E-N=-5.903866803150D+04  KE= 6.765666556244D+03
                          Isotropic Fermi Contact Couplings
        Atom                 a.u.       MegaHertz       Gauss      10(-4) cm-1
     1  Cl(35)            -0.09764     -21.40513      -7.63788      -7.13998
     2  C(13)             -0.01573      -8.84249      -3.15522      -2.94954
     3  C(13)              0.01911      10.74329       3.83347       3.58357
     4  C(13)             -0.01516      -8.52302      -3.04122      -2.84297
     5  C(13)              0.01355       7.61519       2.71729       2.54015
     6  C(13)             -0.01925     -10.81976      -3.86076      -3.60909
     7  C(13)              0.01358       7.63540       2.72450       2.54690
     8  H(1)               0.00135       3.02407       1.07906       1.00872
     9  H(1)               0.00131       2.92767       1.04467       0.97657
    10  H(1)              -0.00063      -1.41914      -0.50639      -0.47337
    11  H(1)               0.00158       3.53322       1.26074       1.17856
    12  H(1)              -0.00062      -1.39456      -0.49762      -0.46518
    13  C(13)             -0.03793     -21.31924      -7.60724      -7.11133
    14  C(13)             -0.02533     -14.24014      -5.08123      -4.75000
    15  H(1)               0.00346       7.72298       2.75575       2.57611
    16  H(1)               0.00049       1.10526       0.39438       0.36868
    17  H(1)              -0.00121      -2.71427      -0.96852      -0.90538
    18  O(17)             -0.00044       0.13476       0.04809       0.04495
    19  O(17)             -0.00042       0.12586       0.04491       0.04198
    20  O(17)             -0.00145       0.44047       0.15717       0.14693
    21  O(17)             -0.00044       0.13221       0.04717       0.04410
    22  W(183)             0.00000       0.00000       0.00000       0.00000
    23  W(183)             0.00000       0.00000       0.00000       0.00000
    24  W(183)             0.00000       0.00000       0.00000       0.00000
    25  W(183)             0.00000       0.00000       0.00000       0.00000
    26  W(183)             0.00000       0.00000       0.00000       0.00000
    27  W(183)             0.00000       0.00000       0.00000       0.00000
    28  W(183)             0.00000       0.00000       0.00000       0.00000
    29  W(183)             0.00000       0.00000       0.00000       0.00000
    30  O(17)             -0.00020       0.06033       0.02153       0.02012
    31  O(17)             -0.00024       0.07302       0.02605       0.02436
    32  O(17)             -0.00026       0.07913       0.02823       0.02639
    33  O(17)             -0.00023       0.07051       0.02516       0.02352
    34  O(17)             -0.00003       0.00834       0.00297       0.00278
    35  O(17)              0.00017      -0.05120      -0.01827      -0.01708
    36  O(17)              0.00013      -0.04013      -0.01432      -0.01338
    37  O(17)              0.00007      -0.02017      -0.00720      -0.00673
    38  O(17)              0.00196      -0.59511      -0.21235      -0.19851
    39  O(17)              0.00195      -0.59009      -0.21056      -0.19683
    40  O(17)             -0.00427       1.29325       0.46146       0.43138
    41  O(17)              0.00193      -0.58539      -0.20888      -0.19527
    42  O(17)              0.00024      -0.07328      -0.02615      -0.02444
    43  O(17)              0.00031      -0.09509      -0.03393      -0.03172
    44  O(17)              0.00045      -0.13497      -0.04816      -0.04502
    45  O(17)              0.00028      -0.08540      -0.03047      -0.02849
    46  O(17)              0.00218      -0.66217      -0.23628      -0.22088
    47  O(17)              0.00194      -0.58669      -0.20934      -0.19570
    48  O(17)              0.00035      -0.10624      -0.03791      -0.03544
    49  O(17)              0.00217      -0.65622      -0.23416      -0.21889
    50  W(183)             0.00000       0.00000       0.00000       0.00000
    51  W(183)             0.00000       0.00000       0.00000       0.00000
    52  W(183)             0.00000       0.00000       0.00000       0.00000
    53  W(183)             0.00000       0.00000       0.00000       0.00000
    54  O(17)              0.00013      -0.03949      -0.01409      -0.01317
    55  O(17)              0.00001      -0.00185      -0.00066      -0.00062
    56  O(17)              0.00020      -0.05968      -0.02130      -0.01991
    57  O(17)              0.00005      -0.01434      -0.00512      -0.00478
    58  O(17)              0.00017      -0.05274      -0.01882      -0.01759
    59  O(17)              0.00029      -0.08741      -0.03119      -0.02916
    60  O(17)              0.00035      -0.10703      -0.03819      -0.03570
    61  O(17)              0.00035      -0.10508      -0.03750      -0.03505
    62  O(17)             -0.00027       0.08091       0.02887       0.02699
    63  O(17)             -0.00020       0.06039       0.02155       0.02014
    64  O(17)             -0.00029       0.08727       0.03114       0.02911
    65  O(17)             -0.00030       0.09036       0.03224       0.03014
    66  O(17)             -0.00808       2.44861       0.87372       0.81677
    67  O(17)             -0.00696       2.10815       0.75224       0.70320
    68  O(17)             -0.00703       2.13167       0.76063       0.71105
    69  O(17)             -0.00752       2.27780       0.81277       0.75979
    70  K(39)             -0.00002      -0.00197      -0.00070      -0.00066
    71  K(39)             -0.00002      -0.00188      -0.00067      -0.00063
    72  K(39)             -0.00002      -0.00236      -0.00084      -0.00079
    73  V(51)              0.07049      41.51338      14.81301      13.84737
 --------------------------------------------------------
       Center         ----  Spin Dipole Couplings  ----
                      3XX-RR        3YY-RR        3ZZ-RR
 --------------------------------------------------------
     1   Atom        1.250261     -2.570548      1.320287
     2   Atom       -0.018433     -0.013292      0.031726
     3   Atom        0.005885      0.003062     -0.008946
     4   Atom       -0.016600     -0.019097      0.035698
     5   Atom        0.012258      0.005812     -0.018070
     6   Atom       -0.024778     -0.013972      0.038750
     7   Atom        0.012172      0.004637     -0.016809
     8   Atom       -0.001661     -0.002412      0.004073
     9   Atom       -0.000103      0.000550     -0.000447
    10   Atom        0.001497      0.000705     -0.002202
    11   Atom        0.004514      0.000309     -0.004823
    12   Atom        0.000750     -0.000816      0.000066
    13   Atom       -0.126982      0.025599      0.101383
    14   Atom        0.009941     -0.045161      0.035220
    15   Atom       -0.002811      0.004315     -0.001504
    16   Atom        0.008939      0.000160     -0.009099
    17   Atom       -0.011871      0.002317      0.009554
    18   Atom        0.001355     -0.001310     -0.000044
    19   Atom        0.001858     -0.001775     -0.000083
    20   Atom       -0.001603     -0.000531      0.002135
    21   Atom       -0.000660      0.000699     -0.000040
    22   Atom       -0.001980      0.000609      0.001370
    23   Atom       -0.001816      0.000656      0.001160
    24   Atom       -0.002390      0.001046      0.001344
    25   Atom       -0.002061      0.000603      0.001458
    26   Atom        0.000346     -0.002241      0.001895
    27   Atom        0.000491     -0.002456      0.001964
    28   Atom        0.000865     -0.003077      0.002212
    29   Atom        0.000639     -0.002691      0.002051
    30   Atom       -0.000140      0.000320     -0.000180
    31   Atom        0.000035      0.000059     -0.000094
    32   Atom       -0.000485      0.000618     -0.000132
    33   Atom       -0.000144      0.000255     -0.000111
    34   Atom       -0.000056     -0.002008      0.002064
    35   Atom       -0.000334     -0.002675      0.003009
    36   Atom       -0.002289     -0.000488      0.002777
    37   Atom       -0.001970     -0.000630      0.002599
    38   Atom        0.006030     -0.002888     -0.003142
    39   Atom        0.006455     -0.003242     -0.003213
    40   Atom       -0.009212      0.009266     -0.000053
    41   Atom       -0.004566      0.008064     -0.003498
    42   Atom        0.002677     -0.001129     -0.001548
    43   Atom        0.002991     -0.001160     -0.001831
    44   Atom       -0.004436      0.005729     -0.001293
    45   Atom       -0.003341      0.004883     -0.001542
    46   Atom       -0.000654      0.000697     -0.000043
    47   Atom        0.001716     -0.002840      0.001124
    48   Atom        0.005434     -0.007698      0.002263
    49   Atom        0.004777     -0.004872      0.000095
    50   Atom        0.006148     -0.002807     -0.003341
    51   Atom        0.006491     -0.003190     -0.003302
    52   Atom       -0.002304      0.005038     -0.002734
    53   Atom       -0.002146      0.005552     -0.003406
    54   Atom       -0.003146     -0.001654      0.004800
    55   Atom       -0.002942     -0.001876      0.004818
    56   Atom       -0.001121     -0.004397      0.005518
    57   Atom       -0.001171     -0.003815      0.004986
    58   Atom       -0.004012      0.006410     -0.002399
    59   Atom       -0.003901      0.006681     -0.002779
    60   Atom        0.002753     -0.000073     -0.002680
    61   Atom        0.003002     -0.000401     -0.002602
    62   Atom        0.000775      0.001074     -0.001849
    63   Atom        0.001068      0.000546     -0.001614
    64   Atom        0.005344     -0.003770     -0.001573
    65   Atom        0.004991     -0.003112     -0.001879
    66   Atom       -0.028878     -0.002095      0.030973
    67   Atom       -0.033578     -0.005126      0.038704
    68   Atom       -0.063181      0.021721      0.041460
    69   Atom       -0.059195      0.026400      0.032795
    70   Atom       -0.000583      0.000561      0.000023
    71   Atom        0.000458     -0.000549      0.000091
    72   Atom        0.000802     -0.001010      0.000208
    73   Atom       -1.006304      0.220240      0.786064
 --------------------------------------------------------
                        XY            XZ            YZ
 --------------------------------------------------------
     1   Atom        1.502719      0.484491     -1.399666
     2   Atom        0.063535      0.032071     -0.030286
     3   Atom       -0.017997     -0.008051      0.011674
     4   Atom        0.061965      0.026148     -0.026708
     5   Atom       -0.031265     -0.016418      0.015701
     6   Atom        0.078035      0.038916     -0.032703
     7   Atom       -0.031921     -0.014153      0.016302
     8   Atom       -0.003039     -0.001419      0.000215
     9   Atom       -0.002285     -0.004165     -0.003370
    10   Atom       -0.000433     -0.001563      0.000888
    11   Atom        0.002415      0.002397      0.006246
    12   Atom       -0.001388      0.000379      0.002515
    13   Atom        0.168050      0.105476     -0.067391
    14   Atom        0.068523      0.039957     -0.050117
    15   Atom       -0.005050     -0.011215     -0.015023
    16   Atom       -0.001212      0.009160      0.003363
    17   Atom       -0.001890     -0.009667     -0.001280
    18   Atom        0.000429     -0.001697      0.000247
    19   Atom        0.000366      0.002018     -0.000574
    20   Atom        0.002805      0.000436     -0.000472
    21   Atom       -0.001132      0.001321     -0.001334
    22   Atom        0.002231     -0.002005     -0.004092
    23   Atom        0.002197      0.002242      0.003898
    24   Atom        0.002341      0.001881      0.004195
    25   Atom        0.002020     -0.002023     -0.004102
    26   Atom       -0.002055     -0.004576      0.002437
    27   Atom       -0.001862      0.004716     -0.002749
    28   Atom       -0.001439     -0.004653      0.002593
    29   Atom       -0.001712      0.004751     -0.002274
    30   Atom        0.000398     -0.000164     -0.000590
    31   Atom        0.000448      0.000645      0.000282
    32   Atom        0.000472     -0.000128      0.000817
    33   Atom        0.000310     -0.000093     -0.000630
    34   Atom        0.000582     -0.003311     -0.000822
    35   Atom        0.000860      0.004067      0.001063
    36   Atom       -0.000334     -0.001755      0.003880
    37   Atom       -0.000632      0.001468     -0.003306
    38   Atom        0.004870      0.003672      0.001706
    39   Atom        0.004908     -0.003600     -0.001825
    40   Atom        0.005606      0.003555     -0.004775
    41   Atom       -0.002340     -0.000490      0.003666
[...]
    X1      -18.27332   0.00267   0.00000   0.00247  -0.00062 -18.27394
    Y1       15.63289  -0.01188   0.00000  -0.01182  -0.01524  15.61766
    Z1       19.90958  -0.00316   0.00000  -0.00334  -0.00471  19.90487
    X2      -15.83315   0.00205   0.00000   0.00262   0.00111 -15.83204
    Y2        8.09149   0.00121   0.00000   0.01676   0.01412   8.10561
    Z2       23.05737   0.00266   0.00000   0.00625   0.00553  23.06290
    X3      -17.34842   0.00065   0.00000  -0.02249  -0.02394 -17.37235
    Y3        7.47447   0.00351   0.00000   0.03743   0.03429   7.50876
    Z3       20.95938  -0.00493   0.00000   0.01347   0.01285  20.97222
    X4      -19.06787  -0.00248   0.00000  -0.00673  -0.00776 -19.07564
    Y4        5.46095  -0.00273   0.00000   0.01127   0.00782   5.46876
    Z4       21.20597  -0.00073   0.00000  -0.01155  -0.01193  21.19403
    X5      -19.29225  -0.00127   0.00000   0.00147   0.00076 -19.29149
    Y5        4.13840   0.00004   0.00000   0.00069  -0.00260   4.13580
    Z5       23.46734  -0.00199   0.00000  -0.02065  -0.02090  23.44644
    X6      -17.77773   0.00006   0.00000   0.00066  -0.00011 -17.77784
    Y6        4.77705   0.00050   0.00000   0.00520   0.00241   4.77945
    Z6       25.53028  -0.00134   0.00000  -0.01901  -0.01937  25.51091
    X7      -16.04592   0.00146   0.00000   0.00893   0.00776 -16.03816
    Y7        6.75687   0.00192   0.00000   0.00222  -0.00024   6.75662
    Z7       25.31158  -0.00062   0.00000  -0.00685  -0.00744  25.30414
    X8      -14.47582   0.00027   0.00000   0.01001   0.00820 -14.46762
    Y8        9.64119  -0.00052   0.00000   0.00814   0.00576   9.64695
    Z8       22.93466   0.00010   0.00000   0.00694   0.00603  22.94069
    X9      -20.26248   0.00039   0.00000   0.00071  -0.00027 -20.26275
    Y9        4.95812  -0.00024   0.00000   0.00674   0.00290   4.96101
    Z9       19.59577   0.00023   0.00000  -0.01373  -0.01403  19.58174
   X10      -20.66446   0.00074   0.00000   0.01441   0.01402 -20.65044
   Y10        2.60366  -0.00012   0.00000  -0.01003  -0.01357   2.59009
   Z10       23.62683  -0.00041   0.00000  -0.02369  -0.02375  23.60308
   X11      -17.92947  -0.00036   0.00000  -0.00456  -0.00507 -17.93454
   Y11        3.72405   0.00036   0.00000   0.00486   0.00220   3.72625
   Z11       27.29839  -0.00010   0.00000  -0.01897  -0.01921  27.27918
   X12      -14.86291   0.00022   0.00000   0.01565   0.01442 -14.84849
   Y12        7.28042  -0.00057   0.00000  -0.01556  -0.01764   7.26279
   Z12       26.92145  -0.00053   0.00000  -0.00770  -0.00838  26.91307
   X13      -17.26046  -0.01265   0.00000  -0.06130  -0.06311 -17.32357
   Y13        8.89313  -0.01537   0.00000   0.07624   0.07289   8.96601
   Z13       18.58628   0.01163   0.00000   0.05332   0.05255  18.63884
   X14      -15.94715   0.00399   0.00000  -0.04187  -0.04412 -15.99127
   Y14       11.04278   0.02613   0.00000   0.10413   0.10100  11.14378
   Z14       18.18973   0.00014   0.00000   0.03695   0.03594  18.22567
   X15      -18.42762   0.00035   0.00000  -0.03836  -0.04006 -18.46768
   Y15        8.13465   0.00072   0.00000   0.06338   0.05965   8.19430
   Z15       17.05245   0.00036   0.00000   0.04166   0.04100  17.09345
   X16      -16.00730   0.00183   0.00000   0.00772   0.00525 -16.00205
   Y16       12.00396  -0.00232   0.00000   0.03157   0.02826  12.03222
   Z16       16.36874  -0.00213   0.00000  -0.00402  -0.00511  16.36363
   X17      -14.67696   0.00309   0.00000   0.03041   0.02805 -14.64890
   Y17       11.83503  -0.00141   0.00000   0.05141   0.04868  11.88371
   Z17       19.60469  -0.00028   0.00000   0.00203   0.00092  19.60561
   X18       -1.84283   0.00501   0.00000   0.02506   0.02559  -1.81724
   Y18       -3.43841  -0.00081   0.00000  -0.00204  -0.00275  -3.44116
   Z18       14.08972  -0.00130   0.00000  -0.01290  -0.01293  14.07679
   X19      -15.82776  -0.00494   0.00000  -0.02121  -0.02087 -15.84863
   Y19       -2.50195   0.00126   0.00000  -0.00485  -0.00834  -2.51029
   Z19       14.10009  -0.00157   0.00000  -0.01336  -0.01308  14.08701
   X20      -13.24418  -0.00401   0.00000  -0.01517  -0.01566 -13.25984
   Y20        2.52269   0.00426   0.00000   0.01522   0.01278   2.53547
   Z20       19.81558   0.00098   0.00000   0.00995   0.00968  19.82526
   X21       -4.40262   0.00372   0.00000   0.01707   0.01873  -4.38389
   Y21       -8.31050  -0.00343   0.00000  -0.02053  -0.02120  -8.33170
   Z21       19.94623   0.00148   0.00000   0.01296   0.01346  19.95969
   X22       -6.38725  -0.00247   0.00000   0.01022   0.00975  -6.37750
   Y22        1.34261  -0.01551   0.00000  -0.02399  -0.02578   1.31683
   Z22       12.28656   0.01433   0.00000   0.00995   0.00959  12.29615
   X23      -11.32647   0.00356   0.00000  -0.00858  -0.00735 -11.33382
   Y23       -7.25978   0.01520   0.00000   0.00998   0.00722  -7.25256
   Z23       12.41549   0.01517   0.00000   0.01021   0.01082  12.42631
   X24       -6.77753  -0.00986   0.00000  -0.01987  -0.02014  -6.79767
   Y24        1.66044  -0.01261   0.00000  -0.00215  -0.00314   1.65729
   Z24       21.54034  -0.01480   0.00000  -0.01012  -0.01050  21.52984
   X25      -10.90172   0.01061   0.00000   0.02259   0.02411 -10.87761
   Y25       -7.34764   0.01073   0.00000  -0.00508  -0.00687  -7.35451
   Z25       21.67862  -0.01531   0.00000  -0.01129  -0.01069  21.66793
   X26       -4.61785  -0.01235   0.00000   0.00454   0.00529  -4.61255
   Y26       -4.88931   0.01134   0.00000   0.01167   0.01021  -4.87910
   Z26       12.05678   0.01615   0.00000   0.00950   0.00968  12.06646
   X27      -13.05485   0.01226   0.00000   0.00232   0.00231 -13.05253
   Y27       -1.02890  -0.01206   0.00000  -0.02394  -0.02707  -1.05598
   Z27       12.00204   0.01582   0.00000   0.01152   0.01158  12.01362
   X28      -12.82708   0.01733   0.00000   0.01279   0.01296 -12.81412
   Y28       -0.49995  -0.00465   0.00000   0.00512   0.00297  -0.49698
   Z28       21.89327  -0.01600   0.00000  -0.01050  -0.01050  21.88278
   X29       -4.82678  -0.01630   0.00000  -0.01008  -0.00898  -4.83576
   Y29       -5.18499   0.00291   0.00000  -0.01309  -0.01366  -5.19865
   Z29       21.95820  -0.01600   0.00000  -0.00945  -0.00923  21.94897
   X30       -5.93106   0.00102   0.00000  -0.01043  -0.01142  -5.94248
   Y30        3.59994   0.00402   0.00000  -0.01132  -0.01323   3.58671
   Z30       10.07981  -0.00462   0.00000   0.00165   0.00107  10.08088
   X31      -11.59170  -0.00069   0.00000   0.00925   0.01089 -11.58081
   Y31       -9.62038  -0.00469   0.00000  -0.00124  -0.00425  -9.62463
   Z31       10.25608  -0.00441   0.00000   0.00286   0.00370  10.25978
   X32       -5.02735   0.00352   0.00000  -0.00083  -0.00136  -5.02870
   Y32        3.24810   0.00325   0.00000  -0.00953  -0.00997   3.23813
   Z32       23.71525   0.00458   0.00000  -0.00218  -0.00275  23.71249
   X33      -12.62643  -0.00336   0.00000   0.00384   0.00573 -12.62070
   Y33       -8.88046  -0.00303   0.00000   0.00193   0.00001  -8.88045
   Z33       23.90823   0.00452   0.00000  -0.00423  -0.00344  23.90479
   X34       -5.02878   0.00186   0.00000   0.01730   0.01738  -5.01141
   Y34       -1.72006   0.00114   0.00000   0.00047  -0.00122  -1.72128
   Z34       10.55860  -0.00478   0.00000  -0.01593  -0.01604  10.54256
   X35      -12.64560  -0.00204   0.00000  -0.01381  -0.01322 -12.65881
   Y35       -4.30613  -0.00019   0.00000  -0.01033  -0.01352  -4.31965
   Z35       10.62224  -0.00501   0.00000  -0.01649  -0.01612  10.60611
   X36       -9.97530  -0.00101   0.00000  -0.00718  -0.00728  -9.98258
   Y36        1.02210   0.00219   0.00000   0.01443   0.01298   1.03508
   Z36       23.35757   0.00497   0.00000   0.01401   0.01378  23.37135
   X37       -7.66181   0.00047   0.00000   0.00751   0.00895  -7.65286
   Y37       -6.69786  -0.00192   0.00000  -0.01905  -0.02003  -6.71788
   Z37       23.44930   0.00487   0.00000   0.01433   0.01478  23.46407
   X38        0.64104   0.00671   0.00000  -0.00342  -0.00346   0.63758
   Y38       -0.11915   0.00238   0.00000   0.00335   0.00345  -0.11571
   Z38       17.51829   0.00190   0.00000   0.00379   0.00337  17.52166
   X39      -18.31940  -0.00678   0.00000   0.00587   0.00694 -18.31246
   Y39       -5.70100  -0.00211   0.00000  -0.00922  -0.01286  -5.71387
   Z39       17.60778   0.00214   0.00000   0.00479   0.00544  17.61322
   X40      -12.03349  -0.00342   0.00000  -0.00929  -0.01066 -12.04415
   Y40        6.45439   0.00876   0.00000  -0.00688  -0.00940   6.44499
   Z40       16.39127  -0.00106   0.00000  -0.00332  -0.00400  16.38728
   X41       -5.64618   0.00210   0.00000   0.00078   0.00313  -5.64305
   Y41      -12.27408  -0.00708   0.00000  -0.00297  -0.00421 -12.27830
   Z41       16.52783  -0.00188   0.00000  -0.00377  -0.00286  16.52497
   X42       -3.32657   0.00301   0.00000   0.01793   0.01750  -3.30906
   Y42        1.38588   0.00412   0.00000   0.00631   0.00530   1.39119
   Z42       14.13631  -0.00181   0.00000  -0.01202  -0.01247  14.12384
   X43      -14.35818  -0.00368   0.00000  -0.01792  -0.01662 -14.37480
   Y43       -7.33582  -0.00370   0.00000  -0.01357  -0.01675  -7.35257
   Z43       14.26347  -0.00147   0.00000  -0.01118  -0.01048  14.25300
   X44       -8.46586   0.00042   0.00000  -0.00652  -0.00734  -8.47320
   Y44        4.14537   0.00538   0.00000   0.01916   0.01766   4.16303
   Z44       19.69664   0.00106   0.00000   0.00687   0.00631  19.70295
   X45       -9.19708  -0.00124   0.00000   0.00917   0.01114  -9.18593
   Y45       -9.90335  -0.00497   0.00000  -0.02450  -0.02613  -9.92948
   Z45       19.88322   0.00174   0.00000   0.01074   0.01153  19.89476
   X46       -3.05416   0.00379   0.00000   0.00073   0.00177  -3.05239
   Y46       -6.65401  -0.00450   0.00000  -0.00957  -0.01093  -6.66494
   Z46        9.87556  -0.00494   0.00000   0.00398   0.00429   9.87985
   X47      -14.70936  -0.00413   0.00000   0.00827   0.00789 -14.70148
   Y47        0.49217   0.00359   0.00000   0.00015  -0.00353   0.48865
   Z47        9.73835  -0.00490   0.00000   0.00411   0.00408   9.74243
   X48      -15.12153  -0.00610   0.00000  -0.00170  -0.00151 -15.12304
   Y48       -0.30700   0.00058   0.00000  -0.01049  -0.01289  -0.31989
   Z48       24.12805   0.00535   0.00000  -0.00380  -0.00375  24.12430
   X49       -2.50471   0.00577   0.00000   0.00457   0.00578  -2.49893
   Y49       -5.42204  -0.00064   0.00000   0.00215   0.00225  -5.41979
   Z49       24.16289   0.00474   0.00000  -0.00396  -0.00379  24.15910
   X50       -2.31363  -0.02148   0.00000  -0.00830  -0.00816  -2.32180
   Y50       -1.08050  -0.00730   0.00000  -0.00859  -0.00916  -1.08967
   Z50       16.70385  -0.00459   0.00000  -0.01638  -0.01662  16.68722
   X51      -15.36499   0.02167   0.00000   0.01113   0.01199 -15.35299
   Y51       -4.76084   0.00598   0.00000  -0.00041  -0.00355  -4.76439
   Z51       16.76932  -0.00484   0.00000  -0.01693  -0.01645  16.75287
   X52      -11.12093   0.00837   0.00000   0.00043  -0.00032 -11.12125
   Y52        3.48612  -0.02332   0.00000  -0.01777  -0.02004   3.46607
   Z52       17.09859   0.00493   0.00000   0.01498   0.01456  17.11315
   X53       -6.56700  -0.00675   0.00000   0.00441   0.00618  -6.56082
   Y53       -9.29865   0.02162   0.00000   0.00743   0.00609  -9.29256
   Z53       17.30939   0.00425   0.00000   0.01601   0.01667  17.32606
   X54       -7.97066   0.00096   0.00000   0.00017   0.00110  -7.96956
   Y54       -5.90177  -0.00209   0.00000   0.00973   0.00755  -5.89421
   Z54       11.46447  -0.00316   0.00000   0.01062   0.01099  11.47547
   X55       -9.69857  -0.00110   0.00000   0.00452   0.00431  -9.69426
   Y55       -0.10411   0.00228   0.00000  -0.02286  -0.02539  -0.12950
   Z55       11.37174  -0.00302   0.00000   0.01027   0.01015  11.38189
   X56      -11.65043  -0.00250   0.00000   0.01519   0.01603 -11.63440
   Y56       -3.81140   0.00025   0.00000   0.00221   0.00035  -3.81105
   Z56       22.53167   0.00302   0.00000  -0.01185  -0.01157  22.52010
   X57       -5.96853   0.00220   0.00000  -0.01297  -0.01251  -5.98104
   Y57       -1.87699   0.00082   0.00000  -0.00831  -0.00905  -1.88605
   Z57       22.51811   0.00341   0.00000  -0.00900  -0.00906  22.50905
   X58       -8.20464  -0.00042   0.00000   0.00326   0.00253  -8.20211
   Y58        2.98805   0.00363   0.00000  -0.01797  -0.01988   2.96816
   Z58       14.82722  -0.00174   0.00000   0.00855   0.00809  14.83531
   X59       -9.45893  -0.00043   0.00000  -0.00188  -0.00025  -9.45918
   Y59       -8.88392  -0.00315   0.00000   0.00961   0.00747  -8.87645
   Z59       14.96884  -0.00219   0.00000   0.01044   0.01114  14.97998
   X60       -4.33493   0.00202   0.00000  -0.01585  -0.01607  -4.35100
   Y60        1.05175   0.00244   0.00000  -0.00561  -0.00636   1.04539
   Z60       19.03761   0.00233   0.00000  -0.01020  -0.01059  19.02702
   X61      -13.32380  -0.00253   0.00000   0.01766   0.01900 -13.30480
   Y61       -6.84325  -0.00208   0.00000  -0.00241  -0.00492  -6.84818
   Z61       19.14909   0.00207   0.00000  -0.01175  -0.01113  19.13797
   X62       -4.86017   0.00204   0.00000   0.00454   0.00586  -4.85431
   Y62       -7.39856  -0.00300   0.00000   0.00688   0.00564  -7.39292
   Z62       14.84712  -0.00119   0.00000   0.01200   0.01243  14.85955
   X63      -12.84649  -0.00166   0.00000   0.00107   0.00064 -12.84586
   Y63        1.48783   0.00369   0.00000  -0.01610  -0.01893   1.46890
   Z63       14.74058  -0.00065   0.00000   0.01286   0.01268  14.75325
   X64      -14.76244  -0.00348   0.00000   0.01046   0.01089 -14.75156
   Y64       -2.23024   0.00037   0.00000   0.00104  -0.00175  -2.23200
   Z64       19.18988   0.00143   0.00000  -0.01282  -0.01259  19.17729
   X65       -2.90885   0.00336   0.00000  -0.00745  -0.00675  -2.91561
   Y65       -3.56580   0.00034   0.00000  -0.00803  -0.00848  -3.57428
   Z65       19.17660   0.00110   0.00000  -0.01201  -0.01200  19.16459
   X66       -6.32305   0.03979   0.00000   0.07152   0.07183  -6.25122
   Y66       -2.20250   0.00731   0.00000   0.00517   0.00367  -2.19883
   Z66       15.14527  -0.02547   0.00000  -0.04061  -0.04064  15.10463
   X67      -11.34858  -0.04049   0.00000  -0.06668  -0.06607 -11.41465
   Y67       -3.71894  -0.00839   0.00000  -0.01826  -0.02077  -3.73971
   Z67       15.18335  -0.02518   0.00000  -0.04101  -0.04074  15.14262
   X68       -9.63836  -0.01675   0.00000  -0.03033  -0.03028  -9.66864
   Y68       -0.40950   0.03839   0.00000   0.05872   0.05690  -0.35260
   Z68       18.79100   0.02571   0.00000   0.04198   0.04188  18.83288
   X69       -8.00344   0.01664   0.00000   0.03382   0.03488  -7.96856
   Y69       -5.39443  -0.03668   0.00000  -0.06466  -0.06613  -5.46056
   Z69       18.85127   0.02585   0.00000   0.04125   0.04159  18.89285
   X70       -6.08789  -0.00035   0.00000   0.00033   0.00237  -6.08552
   Y70      -11.61022   0.00123   0.00000   0.00923   0.00735 -11.60287
   Z70       10.67440   0.00089   0.00000   0.01178   0.01264  10.68704
   X71       -0.24302  -0.00071   0.00000  -0.01235  -0.01224  -0.25526
   Y71       -0.00748  -0.00050   0.00000  -0.00642  -0.00595  -0.01343
   Z71       23.27402  -0.00043   0.00000  -0.00970  -0.01011  23.26391
   X72      -17.55619   0.00112   0.00000   0.01604   0.01721 -17.53898
   Y72       -5.32734   0.00012   0.00000  -0.00280  -0.00574  -5.33308
   Z72       23.44391  -0.00091   0.00000  -0.01224  -0.01164  23.43227
   X73       -8.83234   0.00069   0.00000   0.00284   0.00335  -8.82899
   Y73       -2.92401  -0.00042   0.00000  -0.00481  -0.00664  -2.93065
   Z73       16.98842  -0.00046   0.00000  -0.00032  -0.00020  16.98822
         Item               Value     Threshold  Converged?
 Maximum Force            0.040485     0.000450     NO 
 RMS     Force            0.009147     0.000300     NO 
 Maximum Displacement     0.100997     0.001800     NO 
 RMS     Displacement     0.020223     0.001200     NO 
 Predicted change in Energy=-1.286933D-02
 GradGradGradGradGradGradGradGradGradGradGradGradGradGradGradGradGradGrad

 Unable to Open any file for archive entry.
 1\1\GINC-X11P1N2\Force\UwB97XD\def2SVP\C8H8Cl1K3O40V1W12(1-)\MAYUMIAO\
 03-Jun-2024\0\\# def2svp wb97xd scrf=(smd,solvent=acetonitrile) g09def
 ault scf=(xqc,maxcycle=64) force guess=read nosymm\\Title Card\\-1,1\C
 l,-9.66982675,8.27257097,10.53569826\C,-8.37854216,4.28182948,12.20143
 319\C,-9.18038632,3.95531772,11.09122484\C,-10.0902848,2.88980822,11.2
 217139\C,-10.2090186,2.18994705,12.41838045\C,-9.40757035,2.52790504,1
 3.51004068\C,-8.49113605,3.57558013,13.39431043\H,-7.66027213,5.101896
 45,12.13650067\H,-10.72244337,2.62372206,10.3696367\H,-10.93516058,1.3
 7779849,12.50277819\H,-9.48786537,1.97068,14.44568778\H,-7.86511478,3.
 85263462,14.24621817\C,-9.1338445,4.7060391,9.83543753\C,-8.43887006,5
 .84358859,9.62559184\H,-9.751477,4.30467041,9.0237672\H,-8.47069784,6.
 35222468,8.66196469\H,-7.7667108,6.26283017,10.37435566\O,-0.97518389,
 -1.81952974,7.45595929\O,-8.3756873,-1.32397596,7.46144395\O,-7.008516
 69,1.33495124,10.48595205\O,-2.32976568,-4.39772636,10.55508874\W,-3.3
 7998465,0.71047886,6.50176825\W,-5.9937099,-3.84171128,6.56999662\W,-3
 .58651274,0.87866517,11.39865447\W,-5.76894013,-3.88820154,11.47182984
 \W,-2.44365877,-2.58731138,6.38017411\W,-6.90832664,-0.54447185,6.3512
 0397\W,-6.78780004,-0.26456168,11.58542118\W,-2.55422292,-2.74378016,1
 1.61977675\O,-3.13858374,1.90500554,5.3340056\O,-6.13406426,-5.090888,
 5.42728587\O,-2.66035828,1.71882214,12.54956848\O,-6.68161657,-4.69933
 566,12.65168858\O,-2.66111737,-0.91021692,5.58736874\O,-6.69176082,-2.
 27870567,5.62104475\O,-5.27870229,0.54087393,12.3602931\O,-4.05445404,
 -3.54435322,12.40883363\O,0.33922254,-0.06305368,9.27027982\O,-9.69420
 883,-3.01684055,9.31763513\O,-6.36784807,3.41551525,8.67388804\O,-2.98
 782798,-6.4951636,8.7461499\O,-1.76034276,0.73337686,7.48061434\O,-7.5
 9801954,-3.88194814,7.54790586\O,-4.47994179,2.19363699,10.42301413\O,
 -4.86688335,-5.24062651,10.52174747\O,-1.6161911,-3.52115109,5.2259195
 \O,-7.78386043,0.26044702,5.1533133\O,-8.00197057,-0.16245695,12.76801
 152\O,-1.3254336,-2.86922187,12.78644986\W,-1.22432147,-0.57177817,8.8
 3929608\W,-8.13080075,-2.51932724,8.8739426\W,-5.88494136,1.84477268,9
 .04818535\W,-3.47510905,-4.92063185,9.15973429\O,-4.2178928,-3.1230803
 8,6.06673754\O,-5.13226054,-0.05509141,6.01766677\O,-6.16514009,-2.016
 90527,11.92324402\O,-3.15841016,-0.99326252,11.91607107\O,-4.34171021,
 1.58120536,7.84622917\O,-5.00545049,-4.7011668,7.92116703\O,-2.2939450
 1,0.55656176,10.0742683\O,-7.05065227,-3.62129298,10.13326413\O,-2.571
 89134,-3.91514685,7.85675512\O,-6.79807137,0.7873258,7.80037775\O,-7.8
 1194846,-1.18019267,10.1548497\O,-1.53929905,-1.88694003,10.1478183\O,
 -3.34601424,-1.16551178,8.01453109\O,-6.00540952,-1.96797565,8.034685\
 O,-5.10039798,-0.21669591,9.9437681\O,-4.2352373,-2.85460878,9.9756602
 7\K,-3.22157184,-6.14386602,5.64864973\K,-0.12860168,-0.00395676,12.31
 607859\K,-9.2903358,-2.81910664,12.40598448\V,-4.6738718,-1.5473213,8.
 98988652\\Version=ES64L-G16RevC.01\HF=-7327.7021212\S2=1.022453\S2-1=0
 .\S2A=0.179791\RMSD=2.647e-09\RMSF=9.147e-03\Dipole=1.2138917,-7.22998
 1,5.5563947\Quadrupole=-4.5251311,29.5179592,-24.9928281,94.6110461,12
 8.2849647,-70.0706611\PG=C01 [X(C8H8Cl1K3O40V1W12)]\\@
 The archive entry for this job was punched.


 EVANS BOLDLY PUT 50 ATM. OF ETHYLENE IN A CELL WITH 25 ATM. OF OXYGEN.
 THE APPARATUS SUBSEQUENTLY BLEW UP, BUT LUCKILY NOT BEFORE HE
 OBTAINED THE SPECTRA SHOWN IN FIGURE 8.
 A.J.MERER AND R.S.MULLIKEN, CHEM.REV. 69, 645 (1969)
 Job cpu time:       0 days 15 hours  2 minutes 29.2 seconds.
 Elapsed time:       0 days  0 hours 17 minutes  6.4 seconds.
 File lengths (MBytes):  RWF=   1869 Int=      0 D2E=      0 Chk=    306 Scr=      1
 Normal termination of Gaussian 16 at Mon Jun  3 03:25:48 2024.
