 Entering Gaussian System, Link 0=g16
 Input=JOBS/68_A.gjf
 Output=JOBS/68_A.log
 Initial command:
 /data/app/gaussian/C01-avx2//g16/l1.exe "/tmp/Gau-711132.inp" -scrdir="/tmp/"
 Entering Link 1 = /data/app/gaussian/C01-avx2//g16/l1.exe PID=    711133.
  
 Copyright (c) 1988-2019, Gaussian, Inc.  All Rights Reserved.
  
 This is part of the Gaussian(R) 16 program.  It is based on
 the Gaussian(R) 09 system (copyright 2009, Gaussian, Inc.),
 the Gaussian(R) 03 system (copyright 2003, Gaussian, Inc.),
 the Gaussian(R) 98 system (copyright 1998, Gaussian, Inc.),
 the Gaussian(R) 94 system (copyright 1995, Gaussian, Inc.),
 the Gaussian 92(TM) system (copyright 1992, Gaussian, Inc.),
 the Gaussian 90(TM) system (copyright 1990, Gaussian, Inc.),
 the Gaussian 88(TM) system (copyright 1988, Gaussian, Inc.),
 the Gaussian 86(TM) system (copyright 1986, Carnegie Mellon
 University), and the Gaussian 82(TM) system (copyright 1983,
 Carnegie Mellon University). Gaussian is a federally registered
 trademark of Gaussian, Inc.
  
 This software contains proprietary and confidential information,
 including trade secrets, belonging to Gaussian, Inc.
  
 This software is provided under written license and may be
 used, copied, transmitted, or stored only in accord with that
 written license.
  
 The following legend is applicable only to US Government
 contracts under FAR:
  
                    RESTRICTED RIGHTS LEGEND
  
 Use, reproduction and disclosure by the US Government is
 subject to restrictions as set forth in subparagraphs (a)
 and (c) of the Commercial Computer Software - Restricted
 Rights clause in FAR 52.227-19.
  
 Gaussian, Inc.
 340 Quinnipiac St., Bldg. 40, Wallingford CT 06492
  
  
 ---------------------------------------------------------------
 Warning -- This program may not be used in any manner that
 competes with the business of Gaussian, Inc. or will provide
 assistance to any competitor of Gaussian, Inc.  The licensee
 of this program is prohibited from giving any competitor of
 Gaussian, Inc. access to this program.  By using this program,
 the user acknowledges that Gaussian, Inc. is engaged in the
 business of creating and licensing software in the field of
 computational chemistry and represents and warrants to the
 licensee that it is not a competitor of Gaussian, Inc. and that
 it will not use this program in any manner prohibited above.
 ---------------------------------------------------------------
  

 Cite this work as:
 Gaussian 16, Revision C.01,
 M. J. Frisch, G. W. Trucks, H. B. Schlegel, G. E. Scuseria, 
 M. A. Robb, J. R. Cheeseman, G. Scalmani, V. Barone, 
 G. A. Petersson, H. Nakatsuji, X. Li, M. Caricato, A. V. Marenich, 
 J. Bloino, B. G. Janesko, R. Gomperts, B. Mennucci, H. P. Hratchian, 
 J. V. Ortiz, A. F. Izmaylov, J. L. Sonnenberg, D. Williams-Young, 
 F. Ding, F. Lipparini, F. Egidi, J. Goings, B. Peng, A. Petrone, 
 T. Henderson, D. Ranasinghe, V. G. Zakrzewski, J. Gao, N. Rega, 
 G. Zheng, W. Liang, M. Hada, M. Ehara, K. Toyota, R. Fukuda, 
 J. Hasegawa, M. Ishida, T. Nakajima, Y. Honda, O. Kitao, H. Nakai, 
 T. Vreven, K. Throssell, J. A. Montgomery, Jr., J. E. Peralta, 
 F. Ogliaro, M. J. Bearpark, J. J. Heyd, E. N. Brothers, K. N. Kudin, 
 V. N. Staroverov, T. A. Keith, R. Kobayashi, J. Normand, 
 K. Raghavachari, A. P. Rendell, J. C. Burant, S. S. Iyengar, 
 J. Tomasi, M. Cossi, J. M. Millam, M. Klene, C. Adamo, R. Cammi, 
 J. W. Ochterski, R. L. Martin, K. Morokuma, O. Farkas, 
 J. B. Foresman, and D. J. Fox, Gaussian, Inc., Wallingford CT, 2019.
 
 ******************************************
 Gaussian 16:  ES64L-G16RevC.01  3-Jul-2019
                 3-Jun-2024 
 ******************************************
 %chk=a.chk
 %nprocshared=56
 Will use up to   56 processors via shared memory.
 %mem=96gb
 ----------------------------------------------------------------------
 # def2svp wb97xd scrf=(smd,solvent=acetonitrile) g09default scf=(xqc,m
 axcycle=64) force guess=read nosymm
 ----------------------------------------------------------------------
 1/10=7,30=1,38=1,158=3,167=1/1,3;
 2/12=2,15=1,17=6,18=5,40=1/2;
 3/5=43,7=101,11=2,25=1,27=10,30=1,70=32201,71=1,72=2,74=-58,75=-4,116=-2,158=3/1,2,3;
 4/5=1,60=-1/1;
 5/5=2,7=64,8=3,13=1,38=6,53=2,87=10/2,8;
 6/7=2,8=2,9=2,10=2,28=1,87=10/1;
 7/29=1,30=1,87=10/1,2,3,16;
 1/10=7,30=1,158=3,167=1/3;
 99//99;
 Using 2006 physical constants.
 ----------
 Title Card
 ----------
 Symbolic Z-matrix:
 Charge = -1 Multiplicity = 1
 17                   -9.67615   8.2741    10.53617 
 6                    -8.38238   4.28509   12.20036 
 6                    -9.18579   3.95894   11.09131 
 6                    -10.09453   2.89243   11.22256 
 6                    -10.20922   2.19051   12.41872 
 6                    -9.40511   2.52738   13.50864 
 6                    -8.49084   3.57685   13.39246 
 1                    -7.66611   5.10688   12.13531 
 1                    -10.72887   2.62659   10.37213 
 1                    -10.93449   1.37769   12.50396 
 1                    -9.48154   1.96798   14.4434 
 1                    -7.86338   3.85407   14.24319 
 6                    -9.14036   4.71108   9.83611 
 6                    -8.43997   5.84508   9.62532 
 1                    -9.76282   4.31395   9.026 
 1                    -8.47091   6.35472   8.66213 
 1                    -7.76247   6.2593    10.37223 
 8                    -0.975    -1.82133   7.45497 
 8                    -8.37478  -1.32299   7.46112 
 8                    -7.00773   1.33359   10.48736 
 8                    -2.3288   -4.3978    10.55515 
 74                   -3.37797   0.71216   6.50401 
 74                   -5.99452  -3.84363   6.57173 
 74                   -3.58424   0.87954   11.39701 
 74                   -5.76959  -3.89051   11.47023 
 74                   -2.44528  -2.58701   6.37793 
 74                   -6.90565  -0.54531   6.34956 
 74                   -6.78502  -0.26595   11.58795 
 74                   -2.55521  -2.74395   11.62144 
 8                    -3.1356    1.90766   5.33768 
 8                    -6.13585  -5.09287   5.42916 
 8                    -2.65821   1.72026   12.54772 
 8                    -6.68151  -4.70282   12.6496 
 8                    -2.6607   -0.90939   5.58725 
 8                    -6.69082  -2.27959   5.6212 
 8                    -5.27624   0.54002   12.3608 
 8                    -4.05487  -3.54546   12.40874 
 8                     0.34163  -0.06796   9.2695 
 8                    -9.69492  -3.01325   9.31736 
 8                    -6.37056   3.41403   8.67534 
 8                    -2.98459  -6.49506   8.74632 
 8                    -1.75869   0.73254   7.4819 
 8                    -7.5984   -3.88167   7.54884 
 8                    -4.47937   2.19351   10.42291 
 8                    -4.86598  -5.2413    10.52045 
 8                    -1.6182   -3.52075   5.22294 
 8                    -7.7809    0.2593    5.15127 
 8                    -7.99874  -0.16323   12.77087 
 8                    -1.32646  -2.86998   12.7881 
 74                   -1.2226   -0.57549   8.83902 
 74                   -8.13125  -2.5168    8.87415 
 74                   -5.88644   1.84351   9.04892 
 74                   -3.47241  -4.92042   9.15941 
 8                    -4.21849  -3.12363   6.0661 
 8                    -5.13061  -0.05439   6.01757 
 8                    -6.16471  -2.01866   11.924 
 8                    -3.15705  -0.99337   11.9167 
 8                    -4.34118   1.58139   7.84736 
 8                    -5.0046   -4.70241   7.92081 
 8                    -2.29202   0.55558   10.07415 
 8                    -7.05149  -3.62176   10.13327 
 8                    -2.57142  -3.9155    7.85556 
 8                    -6.79741   0.78661   7.80028 
 8                    -7.81105  -1.18007   10.15599 
 8                    -1.53854  -1.8883    10.14837 
 8                    -3.34541  -1.16601   8.01444 
 8                    -6.00484  -1.96826   8.03488 
 8                    -5.09926  -0.21732   9.94423 
 8                    -4.23466  -2.85503   9.97556 
 19                   -3.22238  -6.14527   5.64863 
 19                   -0.12847  -0.00926   12.31627 
 19                   -9.29169  -2.81932   12.40391 
 23                   -4.67309  -1.54769   8.98988 
 

 GradGradGradGradGradGradGradGradGradGradGradGradGradGradGradGradGradGrad
 Berny optimization.
 Initialization pass.
 Trust Radius=3.00D-01 FncErr=1.00D-07 GrdErr=1.00D-07 EigMax=2.50D+02 EigMin=1.00D-04
 Number of steps in this run=      2 maximum allowed number of steps=      2.
 GradGradGradGradGradGradGradGradGradGradGradGradGradGradGradGradGradGrad

 Symmetry turned off by external request.
 Stoichiometry    C8H8ClK3O40VW12(1-)
 Framework group  C1[X(C8H8ClK3O40VW12)]
 Deg. of freedom   213
 Full point group                 C1      NOp   1
                          Input orientation:                          
 ---------------------------------------------------------------------
 Center     Atomic      Atomic             Coordinates (Angstroms)
 Number     Number       Type             X           Y           Z
 ---------------------------------------------------------------------
      1         17           0       -9.676148    8.274098   10.536171
      2          6           0       -8.382381    4.285089   12.200365
      3          6           0       -9.185790    3.958937   11.091315
      4          6           0      -10.094530    2.892427   11.222563
      5          6           0      -10.209223    2.190511   12.418724
      6          6           0       -9.405110    2.527376   13.508640
      7          6           0       -8.490843    3.576853   13.392463
      8          1           0       -7.666108    5.106876   12.135312
      9          1           0      -10.728869    2.626593   10.372129
     10          1           0      -10.934494    1.377690   12.503961
     11          1           0       -9.481541    1.967983   14.443404
     12          1           0       -7.863376    3.854074   14.243194
     13          6           0       -9.140363    4.711082    9.836105
     14          6           0       -8.439970    5.845084    9.625318
     15          1           0       -9.762822    4.313955    9.025997
     16          1           0       -8.470911    6.354716    8.662131
     17          1           0       -7.762465    6.259299   10.372225
     18          8           0       -0.975004   -1.821328    7.454974
     19          8           0       -8.374775   -1.322987    7.461115
     20          8           0       -7.007729    1.333591   10.487359
     21          8           0       -2.328804   -4.397798   10.555154
     22         74           0       -3.377971    0.712156    6.504010
     23         74           0       -5.994517   -3.843627    6.571725
     24         74           0       -3.584241    0.879540   11.397013
     25         74           0       -5.769587   -3.890510   11.470227
     26         74           0       -2.445275   -2.587009    6.377929
     27         74           0       -6.905646   -0.545312    6.349563
     28         74           0       -6.785023   -0.265947   11.587950
     29         74           0       -2.555212   -2.743945   11.621444
     30          8           0       -3.135603    1.907656    5.337678
     31          8           0       -6.135848   -5.092870    5.429160
     32          8           0       -2.658210    1.720256   12.547716
     33          8           0       -6.681509   -4.702818   12.649600
     34          8           0       -2.660705   -0.909390    5.587251
     35          8           0       -6.690816   -2.279591    5.621198
     36          8           0       -5.276240    0.540021   12.360803
     37          8           0       -4.054873   -3.545457   12.408738
     38          8           0        0.341631   -0.067960    9.269500
     39          8           0       -9.694922   -3.013250    9.317357
     40          8           0       -6.370560    3.414030    8.675344
     41          8           0       -2.984592   -6.495059    8.746317
     42          8           0       -1.758687    0.732542    7.481898
     43          8           0       -7.598404   -3.881671    7.548836
     44          8           0       -4.479365    2.193509   10.422908
     45          8           0       -4.865982   -5.241303   10.520450
     46          8           0       -1.618196   -3.520751    5.222940
     47          8           0       -7.780903    0.259301    5.151270
     48          8           0       -7.998737   -0.163225   12.770875
     49          8           0       -1.326461   -2.869978   12.788103
     50         74           0       -1.222605   -0.575488    8.839023
     51         74           0       -8.131255   -2.516802    8.874151
     52         74           0       -5.886443    1.843513    9.048920
     53         74           0       -3.472409   -4.920418    9.159409
     54          8           0       -4.218489   -3.123632    6.066104
     55          8           0       -5.130608   -0.054386    6.017572
     56          8           0       -6.164706   -2.018658   11.924000
     57          8           0       -3.157049   -0.993366   11.916697
     58          8           0       -4.341180    1.581389    7.847361
     59          8           0       -5.004602   -4.702413    7.920808
     60          8           0       -2.292019    0.555585   10.074149
     61          8           0       -7.051487   -3.621757   10.133271
     62          8           0       -2.571419   -3.915498    7.855558
     63          8           0       -6.797411    0.786614    7.800279
     64          8           0       -7.811050   -1.180065   10.155987
     65          8           0       -1.538544   -1.888302   10.148373
     66          8           0       -3.345410   -1.166015    8.014438
     67          8           0       -6.004836   -1.968264    8.034877
     68          8           0       -5.099260   -0.217322    9.944233
     69          8           0       -4.234660   -2.855031    9.975557
     70         19           0       -3.222379   -6.145274    5.648625
     71         19           0       -0.128466   -0.009264   12.316273
     72         19           0       -9.291687   -2.819319   12.403906
     73         23           0       -4.673093   -1.547695    8.989885
 ---------------------------------------------------------------------
 Rotational constants (GHZ):           0.0171974           0.0131912           0.0129703
 Standard basis: def2SVP (5D, 7F)
  1217 basis functions,  2313 primitive gaussians,  1337 cartesian basis functions
   321 alpha electrons      321 beta electrons
       nuclear repulsion energy     20963.0607725922 Hartrees.
 NAtoms=   73 NActive=   73 NUniq=   73 SFac= 1.00D+00 NAtFMM=   60 NAOKFM=T Big=T
 Integral buffers will be    131072 words long.
 Raffenetti 2 integral format.
 Two-electron integral symmetry is turned off.
 Nuclear repulsion after empirical dispersion term =    20962.7846730399 Hartrees.
 Force PCM accuracy= 1.00D-10.
 ------------------------------------------------------------------------------
 Polarizable Continuum Model (PCM)
 =================================
 Model                : PCM (using non-symmetric T matrix).
 Atomic radii         : SMD-Coulomb.
 Polarization charges : Total charges.
 Charge compensation  : None.
 Solution method      : On-the-fly selection.
 Cavity type          : VdW (van der Waals Surface) (Alpha=1.000).
 Cavity algorithm     : GePol (No added spheres)
                        Default sphere list used, NSphG=   73.
                        Lebedev-Laikov grids with approx.  5.0 points / Ang**2.
                        Smoothing algorithm: York/Karplus (Gamma=1.0000).
                        Polarization charges: spherical gaussians, with
                                              point-specific exponents (IZeta= 3).
                        Self-potential: point-specific (ISelfS= 7).
                        Self-field    : sphere-specific E.n sum rule (ISelfD= 2).
 1st derivatives      : Analytical E(r).r(x)/FMM algorithm (CHGder, D1EAlg=3).
                        Cavity 1st derivative terms included.
 Solvent              : Acetonitrile, Eps=  35.688000 Eps(inf)=   1.806874
 ------------------------------------------------------------------------------
 ------------------------------------------------------------------------------
 Atomic radii for non-electrostatic terms: SMD-CDS.
 ------------------------------------------------------------------------------
 Nuclear repulsion after PCM non-electrostatic terms =    20962.7789226972 Hartrees.
 One-electron integrals computed using PRISM.
   1 Symmetry operations used in ECPInt.
 ECPInt:  NShTT=  127765 NPrTT=  468030 LenC2=   96454 LenP2D=  220671.
 LDataN:  DoStor=T MaxTD1= 8 Len=  415
 NBasis=  1217 RedAO= T EigKep=  1.38D-04  NBF=  1217
 NBsUse=  1217 1.00D-06 EigRej= -1.00D+00 NBFU=  1217
 Defaulting to unpruned grid for atomic number  74.
 Defaulting to unpruned grid for atomic number  74.
 Defaulting to unpruned grid for atomic number  74.
 Defaulting to unpruned grid for atomic number  74.
 Defaulting to unpruned grid for atomic number  74.
 Defaulting to unpruned grid for atomic number  74.
 Defaulting to unpruned grid for atomic number  74.
 Defaulting to unpruned grid for atomic number  74.
 Initial guess from the checkpoint file:  "a.chk"
 B after Tr=     0.001025   -0.000074    0.000355
         Rot=    1.000000   -0.000041    0.000001    0.000036 Ang=  -0.01 deg.
 Requested convergence on RMS density matrix=1.00D-08 within  64 cycles.
 Requested convergence on MAX density matrix=1.00D-06.
 Requested convergence on             energy=1.00D-06.
 No special actions if energy rises.
 Defaulting to unpruned grid for atomic number  74.
 Defaulting to unpruned grid for atomic number  74.
 Defaulting to unpruned grid for atomic number  74.
 Defaulting to unpruned grid for atomic number  74.
 Defaulting to unpruned grid for atomic number  74.
 Defaulting to unpruned grid for atomic number  74.
 Defaulting to unpruned grid for atomic number  74.
 Defaulting to unpruned grid for atomic number  74.
 Defaulting to unpruned grid for atomic number  74.
 Defaulting to unpruned grid for atomic number  74.
 Defaulting to unpruned grid for atomic number  74.
 Defaulting to unpruned grid for atomic number  74.
 Defaulting to unpruned grid for atomic number  74.
 Defaulting to unpruned grid for atomic number  74.
 Defaulting to unpruned grid for atomic number  74.
 Defaulting to unpruned grid for atomic number  74.
 Defaulting to unpruned grid for atomic number  74.
 Defaulting to unpruned grid for atomic number  74.
 Defaulting to unpruned grid for atomic number  74.
 Defaulting to unpruned grid for atomic number  74.
 Defaulting to unpruned grid for atomic number  74.
 Defaulting to unpruned grid for atomic number  74.
 Defaulting to unpruned grid for atomic number  74.
 Defaulting to unpruned grid for atomic number  74.
 Defaulting to unpruned grid for atomic number  74.
 Defaulting to unpruned grid for atomic number  74.
 Defaulting to unpruned grid for atomic number  74.
 Defaulting to unpruned grid for atomic number  74.
 Defaulting to unpruned grid for atomic number  74.
 Defaulting to unpruned grid for atomic number  74.
 Defaulting to unpruned grid for atomic number  74.
 Defaulting to unpruned grid for atomic number  74.
 Defaulting to unpruned grid for atomic number  74.
 Defaulting to unpruned grid for atomic number  74.
 Defaulting to unpruned grid for atomic number  74.
 Defaulting to unpruned grid for atomic number  74.
 Defaulting to unpruned grid for atomic number  74.
 Defaulting to unpruned grid for atomic number  74.
 Defaulting to unpruned grid for atomic number  74.
 Defaulting to unpruned grid for atomic number  74.
 Defaulting to unpruned grid for atomic number  74.
 Defaulting to unpruned grid for atomic number  74.
 Defaulting to unpruned grid for atomic number  74.
 Defaulting to unpruned grid for atomic number  74.
 Defaulting to unpruned grid for atomic number  74.
 Defaulting to unpruned grid for atomic number  74.
 Defaulting to unpruned grid for atomic number  74.
 Defaulting to unpruned grid for atomic number  74.
 Defaulting to unpruned grid for atomic number  74.
 Defaulting to unpruned grid for atomic number  74.
 Defaulting to unpruned grid for atomic number  74.
 Defaulting to unpruned grid for atomic number  74.
 Defaulting to unpruned grid for atomic number  74.
 Defaulting to unpruned grid for atomic number  74.
 Defaulting to unpruned grid for atomic number  74.
 Defaulting to unpruned grid for atomic number  74.
 Inv3:  Mode=1 IEnd=    87512403.
 Iteration    1 A*A^-1 deviation from unit magnitude is 3.55D-15 for   4173.
 Iteration    1 A*A^-1 deviation from orthogonality  is 3.56D-15 for    580    199.
 Iteration    1 A^-1*A deviation from unit magnitude is 3.33D-15 for   2899.
 Iteration    1 A^-1*A deviation from orthogonality  is 9.35D-10 for    701    578.
 Iteration    2 A*A^-1 deviation from unit magnitude is 4.66D-15 for   1978.
 Iteration    2 A*A^-1 deviation from orthogonality  is 5.64D-15 for   4516   3849.
 Iteration    2 A^-1*A deviation from unit magnitude is 1.33D-15 for   2719.
 Iteration    2 A^-1*A deviation from orthogonality  is 6.57D-16 for   1451   1312.
 Error on total polarization charges =  0.01620
 SCF Done:  E(RwB97XD) =  -7327.70218908     A.U. after   12 cycles
            NFock= 12  Conv=0.30D-08     -V/T= 2.0832
 SMD-CDS (non-electrostatic) energy       (kcal/mol) =      -3.61
 (included in total energy above)
 QCSCF skips out because SCF is already converged.

 **********************************************************************

            Population analysis using the SCF Density.

 **********************************************************************

 Alpha  occ. eigenvalues -- -197.29327-130.00116-130.00028-130.00008-101.48359
 Alpha  occ. eigenvalues --  -22.62465 -19.33610 -19.33608 -19.33601 -19.33578
 Alpha  occ. eigenvalues --  -19.30734 -19.30696 -19.30692 -19.30691 -19.30669
 Alpha  occ. eigenvalues --  -19.30667 -19.30664 -19.30644 -19.30588 -19.30372
 Alpha  occ. eigenvalues --  -19.30349 -19.30171 -19.29360 -19.29352 -19.29339
 Alpha  occ. eigenvalues --  -19.29325 -19.29321 -19.29302 -19.29297 -19.29273
 Alpha  occ. eigenvalues --  -19.29235 -19.29209 -19.29203 -19.29190 -19.29179
 Alpha  occ. eigenvalues --  -19.29151 -19.29124 -19.29117 -19.29111 -19.29110
 Alpha  occ. eigenvalues --  -19.29101 -19.29083 -19.29035 -19.28996 -19.28980
 Alpha  occ. eigenvalues --  -19.28893 -19.11420 -19.11412 -19.11403 -13.37518
 Alpha  occ. eigenvalues --  -13.37421 -13.37405 -10.70447 -10.70440 -10.70440
 Alpha  occ. eigenvalues --  -10.70352 -10.70346 -10.70341 -10.70335 -10.70328
 Alpha  occ. eigenvalues --  -10.70327 -10.29849 -10.29314 -10.29291 -10.29033
 Alpha  occ. eigenvalues --  -10.28961 -10.28910 -10.28151 -10.27435  -9.38833
 Alpha  occ. eigenvalues --   -7.13662  -7.13607  -7.13603  -3.23310  -3.23306
 Alpha  occ. eigenvalues --   -3.23293  -3.23288  -3.23281  -3.23245  -3.23243
 Alpha  occ. eigenvalues --   -3.23242  -3.23223  -3.22961  -3.22945  -3.22765
 Alpha  occ. eigenvalues --   -2.91744  -1.94134  -1.94104  -1.94093  -1.87715
 Alpha  occ. eigenvalues --   -1.87665  -1.87655  -1.87618  -1.87489  -1.87467
 Alpha  occ. eigenvalues --   -1.87465  -1.87450  -1.87425  -1.87272  -1.87243
 Alpha  occ. eigenvalues --   -1.87088  -1.86629  -1.86510  -1.86500  -1.86483
 Alpha  occ. eigenvalues --   -1.86454  -1.86432  -1.86347  -1.86322  -1.86309
 Alpha  occ. eigenvalues --   -1.86296  -1.86279  -1.86262  -1.86144  -1.86133
 Alpha  occ. eigenvalues --   -1.86120  -1.86108  -1.86038  -1.86021  -1.85990
 Alpha  occ. eigenvalues --   -1.85918  -1.85896  -1.85800  -1.85715  -1.85661
 Alpha  occ. eigenvalues --   -1.51207  -1.51115  -1.51103  -1.13023  -1.11249
 Alpha  occ. eigenvalues --   -1.11166  -1.11163  -1.08969  -1.08535  -1.08501
 Alpha  occ. eigenvalues --   -1.08320  -1.07560  -1.07492  -1.07487  -1.06905
 Alpha  occ. eigenvalues --   -1.06892  -1.06874  -1.06309  -1.06283  -1.05352
 Alpha  occ. eigenvalues --   -1.05344  -1.04983  -1.04977  -1.04960  -1.04227
 Alpha  occ. eigenvalues --   -1.04223  -1.04190  -1.04047  -1.04016  -1.04002
 Alpha  occ. eigenvalues --   -1.03945  -1.03927  -1.03898  -1.03767  -1.03755
 Alpha  occ. eigenvalues --   -1.03623  -1.03573  -1.03311  -1.03276  -1.03150
 Alpha  occ. eigenvalues --   -1.03135  -1.03070  -1.02986  -0.94357  -0.86673
 Alpha  occ. eigenvalues --   -0.86590  -0.86582  -0.86501  -0.86483  -0.86481
 Alpha  occ. eigenvalues --   -0.86406  -0.86387  -0.86377  -0.86370  -0.82801
 Alpha  occ. eigenvalues --   -0.79712  -0.71604  -0.69646  -0.67984  -0.64598
 Alpha  occ. eigenvalues --   -0.63969  -0.63903  -0.63882  -0.63282  -0.63261
 Alpha  occ. eigenvalues --   -0.63152  -0.62931  -0.62660  -0.62599  -0.61951
 Alpha  occ. eigenvalues --   -0.61603  -0.61582  -0.61490  -0.61243  -0.61223
 Alpha  occ. eigenvalues --   -0.61179  -0.60418  -0.59471  -0.59445  -0.59434
 Alpha  occ. eigenvalues --   -0.59391  -0.59357  -0.58635  -0.58008  -0.57972
 Alpha  occ. eigenvalues --   -0.57893  -0.57051  -0.57028  -0.56998  -0.56279
 Alpha  occ. eigenvalues --   -0.56258  -0.56106  -0.55711  -0.54874  -0.54812
 Alpha  occ. eigenvalues --   -0.54769  -0.54515  -0.54239  -0.54116  -0.54103
 Alpha  occ. eigenvalues --   -0.54035  -0.53962  -0.53266  -0.53231  -0.53094
 Alpha  occ. eigenvalues --   -0.53052  -0.52913  -0.52740  -0.52709  -0.52656
 Alpha  occ. eigenvalues --   -0.52627  -0.52515  -0.52462  -0.52394  -0.51625
 Alpha  occ. eigenvalues --   -0.51609  -0.51372  -0.51338  -0.51309  -0.51257
 Alpha  occ. eigenvalues --   -0.51193  -0.51171  -0.50961  -0.50798  -0.50624
 Alpha  occ. eigenvalues --   -0.50599  -0.50595  -0.49942  -0.49921  -0.49302
 Alpha  occ. eigenvalues --   -0.49269  -0.49231  -0.49220  -0.49167  -0.49090
 Alpha  occ. eigenvalues --   -0.48905  -0.48084  -0.48037  -0.47923  -0.47626
 Alpha  occ. eigenvalues --   -0.47399  -0.47296  -0.47253  -0.47027  -0.46974
 Alpha  occ. eigenvalues --   -0.46896  -0.46605  -0.46601  -0.46487  -0.46212
 Alpha  occ. eigenvalues --   -0.46160  -0.46119  -0.45639  -0.45112  -0.44935
 Alpha  occ. eigenvalues --   -0.44899  -0.44206  -0.44158  -0.44043  -0.43513
 Alpha  occ. eigenvalues --   -0.43318  -0.43274  -0.43142  -0.43133  -0.43097
 Alpha  occ. eigenvalues --   -0.42761  -0.42737  -0.42700  -0.42620  -0.42605
 Alpha  occ. eigenvalues --   -0.42533  -0.42496  -0.42483  -0.42313  -0.42303
 Alpha  occ. eigenvalues --   -0.42278  -0.42052  -0.41922  -0.41880  -0.41866
 Alpha  occ. eigenvalues --   -0.41245  -0.41222  -0.41161  -0.41088  -0.40588
 Alpha  occ. eigenvalues --   -0.40573  -0.40565  -0.40356  -0.39459  -0.39446
 Alpha  occ. eigenvalues --   -0.37033  -0.32557  -0.29215  -0.25133  -0.25104
 Alpha  occ. eigenvalues --   -0.23468
 Alpha virt. eigenvalues --   -0.09371  -0.09168  -0.08372  -0.08325  -0.06920
 Alpha virt. eigenvalues --   -0.06900  -0.06819  -0.04383  -0.04104  -0.04052
 Alpha virt. eigenvalues --   -0.03730  -0.03501  -0.03444  -0.03228  -0.03088
 Alpha virt. eigenvalues --   -0.03046  -0.03025  -0.02237  -0.02188  -0.02162
 Alpha virt. eigenvalues --   -0.01490  -0.01463  -0.01408  -0.01306  -0.01228
 Alpha virt. eigenvalues --   -0.00061  -0.00037   0.00013   0.01402   0.01429
 Alpha virt. eigenvalues --    0.01879   0.01919   0.02007   0.02140   0.02178
 Alpha virt. eigenvalues --    0.02198   0.02260   0.02323   0.02778   0.02848
 Alpha virt. eigenvalues --    0.02925   0.02993   0.03028   0.04439   0.04537
 Alpha virt. eigenvalues --    0.06750   0.07237   0.07448   0.07492   0.07724
 Alpha virt. eigenvalues --    0.08008   0.08495   0.08516   0.08769   0.09140
 Alpha virt. eigenvalues --    0.09315   0.09374   0.09651   0.09856   0.10190
 Alpha virt. eigenvalues --    0.10262   0.10301   0.10337   0.10396   0.10628
 Alpha virt. eigenvalues --    0.10889   0.11040   0.11061   0.11619   0.11714
 Alpha virt. eigenvalues --    0.12203   0.13119   0.13220   0.13327   0.13607
 Alpha virt. eigenvalues --    0.13756   0.14455   0.14557   0.14663   0.14988
 Alpha virt. eigenvalues --    0.15509   0.16126   0.16330   0.16533   0.16703
 Alpha virt. eigenvalues --    0.16722   0.16907   0.17057   0.17226   0.17668
 Alpha virt. eigenvalues --    0.17894   0.18133   0.18198   0.18381   0.18556
 Alpha virt. eigenvalues --    0.18725   0.18943   0.19205   0.19333   0.19519
 Alpha virt. eigenvalues --    0.19572   0.20120   0.20265   0.20391   0.20582
 Alpha virt. eigenvalues --    0.20696   0.20851   0.20953   0.21279   0.21377
 Alpha virt. eigenvalues --    0.21442   0.21521   0.21624   0.21878   0.22037
 Alpha virt. eigenvalues --    0.22458   0.22715   0.22878   0.23164   0.23208
 Alpha virt. eigenvalues --    0.23423   0.23756   0.23944   0.24244   0.24561
 Alpha virt. eigenvalues --    0.24786   0.25210   0.25449   0.25640   0.25900
 Alpha virt. eigenvalues --    0.26008   0.26160   0.26441   0.26518   0.26741
 Alpha virt. eigenvalues --    0.26943   0.27240   0.27357   0.27420   0.27676
 Alpha virt. eigenvalues --    0.28010   0.28235   0.28299   0.28515   0.28703
 Alpha virt. eigenvalues --    0.29038   0.29583   0.29902   0.30456   0.30487
 Alpha virt. eigenvalues --    0.30719   0.30929   0.31217   0.31466   0.31785
 Alpha virt. eigenvalues --    0.32236   0.34756   0.35169   0.35802   0.36291
 Alpha virt. eigenvalues --    0.36601   0.36886   0.37217   0.38092   0.38396
 Alpha virt. eigenvalues --    0.38602   0.39124   0.39450   0.39590   0.40234
 Alpha virt. eigenvalues --    0.40670   0.40851   0.40904   0.41109   0.41677
 Alpha virt. eigenvalues --    0.42063   0.42306   0.42668   0.43260   0.43460
 Alpha virt. eigenvalues --    0.43680   0.44408   0.44677   0.44785   0.45145
 Alpha virt. eigenvalues --    0.45687   0.46266   0.46487   0.46661   0.47197
 Alpha virt. eigenvalues --    0.47369   0.47622   0.47842   0.48006   0.48168
 Alpha virt. eigenvalues --    0.48350   0.48432   0.48544   0.48651   0.48896
 Alpha virt. eigenvalues --    0.49140   0.49338   0.49404   0.49762   0.49845
 Alpha virt. eigenvalues --    0.50188   0.50271   0.50529   0.50859   0.51058
 Alpha virt. eigenvalues --    0.51629   0.51748   0.51922   0.52292   0.52429
 Alpha virt. eigenvalues --    0.52645   0.52881   0.53007   0.53141   0.53281
 Alpha virt. eigenvalues --    0.53554   0.53967   0.54179   0.54295   0.54442
 Alpha virt. eigenvalues --    0.54998   0.55440   0.55630   0.56348   0.56451
 Alpha virt. eigenvalues --    0.56786   0.57360   0.57598   0.58050   0.58289
 Alpha virt. eigenvalues --    0.58564   0.59076   0.59443   0.60218   0.60782
 Alpha virt. eigenvalues --    0.61437   0.62210   0.62629   0.62739   0.63162
 Alpha virt. eigenvalues --    0.64199   0.65273   0.65686   0.65750   0.65887
 Alpha virt. eigenvalues --    0.66147   0.66460   0.66958   0.67352   0.67431
 Alpha virt. eigenvalues --    0.67848   0.68230   0.69536   0.70187   0.71149
 Alpha virt. eigenvalues --    0.71414   0.71966   0.72156   0.72309   0.72317
 Alpha virt. eigenvalues --    0.72580   0.72758   0.73211   0.73300   0.73965
 Alpha virt. eigenvalues --    0.74590   0.74794   0.75454   0.75663   0.75819
 Alpha virt. eigenvalues --    0.76170   0.76695   0.76920   0.77182   0.77403
 Alpha virt. eigenvalues --    0.78130   0.78569   0.79071   0.79433   0.79573
 Alpha virt. eigenvalues --    0.80084   0.80353   0.80491   0.80707   0.81320
 Alpha virt. eigenvalues --    0.81519   0.81677   0.81997   0.82446   0.83175
 Alpha virt. eigenvalues --    0.83849   0.84195   0.84642   0.85470   0.86070
 Alpha virt. eigenvalues --    0.87030   0.87349   0.87936   0.88028   0.88590
 Alpha virt. eigenvalues --    0.88860   0.89032   0.89442   0.89508   0.90248
 Alpha virt. eigenvalues --    0.90513   0.90777   0.91233   0.91250   0.91636
 Alpha virt. eigenvalues --    0.92552   0.92936   0.93389   0.93859   0.94116
 Alpha virt. eigenvalues --    0.94250   0.94865   0.95634   0.95871   0.96519
 Alpha virt. eigenvalues --    0.96881   0.97075   0.97225   0.97774   0.97889
 Alpha virt. eigenvalues --    0.98168   0.98267   0.98444   0.98585   0.98759
 Alpha virt. eigenvalues --    0.98916   0.99423   0.99995   1.00097   1.00265
 Alpha virt. eigenvalues --    1.00816   1.01216   1.01475   1.01527   1.01624
 Alpha virt. eigenvalues --    1.02023   1.02167   1.02340   1.02476   1.02660
 Alpha virt. eigenvalues --    1.02882   1.03417   1.03448   1.03620   1.03998
 Alpha virt. eigenvalues --    1.04230   1.04275   1.04421   1.04700   1.04845
 Alpha virt. eigenvalues --    1.05040   1.05191   1.05252   1.05418   1.05807
 Alpha virt. eigenvalues --    1.05925   1.06362   1.06834   1.07023   1.07145
 Alpha virt. eigenvalues --    1.07499   1.07908   1.08666   1.08916   1.09162
 Alpha virt. eigenvalues --    1.09297   1.09753   1.09924   1.10032   1.10213
 Alpha virt. eigenvalues --    1.10727   1.10879   1.10892   1.10957   1.11217
 Alpha virt. eigenvalues --    1.11435   1.11630   1.11725   1.11995   1.12393
 Alpha virt. eigenvalues --    1.12698   1.13409   1.13644   1.14098   1.14795
 Alpha virt. eigenvalues --    1.15237   1.15746   1.16184   1.16240   1.16658
 Alpha virt. eigenvalues --    1.17128   1.17582   1.17903   1.18576   1.18898
 Alpha virt. eigenvalues --    1.19901   1.20510   1.20912   1.21094   1.21200
 Alpha virt. eigenvalues --    1.21376   1.21786   1.22038   1.22852   1.23568
 Alpha virt. eigenvalues --    1.24977   1.25838   1.26165   1.26446   1.26717
 Alpha virt. eigenvalues --    1.27229   1.27948   1.28337   1.28597   1.28690
 Alpha virt. eigenvalues --    1.28828   1.28947   1.29141   1.29290   1.30024
 Alpha virt. eigenvalues --    1.30122   1.30326   1.30423   1.30599   1.30730
 Alpha virt. eigenvalues --    1.30975   1.32016   1.32277   1.32816   1.33034
 Alpha virt. eigenvalues --    1.33187   1.33425   1.33652   1.33855   1.34073
 Alpha virt. eigenvalues --    1.34221   1.34414   1.34454   1.34536   1.34733
 Alpha virt. eigenvalues --    1.34965   1.35080   1.35635   1.35791   1.36055
 Alpha virt. eigenvalues --    1.36182   1.36393   1.36648   1.36774   1.36821
 Alpha virt. eigenvalues --    1.37072   1.37302   1.37659   1.37702   1.37755
 Alpha virt. eigenvalues --    1.38022   1.38345   1.38637   1.38937   1.38981
 Alpha virt. eigenvalues --    1.39289   1.39576   1.39714   1.39777   1.40084
 Alpha virt. eigenvalues --    1.40348   1.40461   1.40587   1.40696   1.40867
 Alpha virt. eigenvalues --    1.41093   1.41138   1.41415   1.41854   1.41987
 Alpha virt. eigenvalues --    1.42444   1.42767   1.43151   1.43234   1.43352
 Alpha virt. eigenvalues --    1.43647   1.43973   1.44368   1.44422   1.45567
 Alpha virt. eigenvalues --    1.46143   1.46592   1.47583   1.47606   1.47815
 Alpha virt. eigenvalues --    1.48200   1.48382   1.49229   1.49727   1.49942
 Alpha virt. eigenvalues --    1.50357   1.50913   1.51339   1.51789   1.53046
 Alpha virt. eigenvalues --    1.53425   1.55412   1.55733   1.55789   1.55859
 Alpha virt. eigenvalues --    1.56037   1.56281   1.56601   1.56632   1.57163
 Alpha virt. eigenvalues --    1.57226   1.57885   1.58383   1.58987   1.59118
 Alpha virt. eigenvalues --    1.59564   1.60042   1.60222   1.60418   1.60508
 Alpha virt. eigenvalues --    1.60609   1.61114   1.61971   1.62155   1.62613
 Alpha virt. eigenvalues --    1.63988   1.64312   1.64976   1.65549   1.66943
 Alpha virt. eigenvalues --    1.67631   1.68009   1.69684   1.70567   1.70855
 Alpha virt. eigenvalues --    1.71305   1.71647   1.72401   1.73471   1.74038
 Alpha virt. eigenvalues --    1.75032   1.75219   1.75335   1.75743   1.76476
 Alpha virt. eigenvalues --    1.76603   1.76733   1.77275   1.77547   1.78544
 Alpha virt. eigenvalues --    1.78621   1.78951   1.79192   1.80259   1.80465
 Alpha virt. eigenvalues --    1.81231   1.81342   1.82018   1.82271   1.82911
 Alpha virt. eigenvalues --    1.82969   1.83297   1.83778   1.83987   1.84449
 Alpha virt. eigenvalues --    1.85126   1.85439   1.85625   1.85974   1.86223
 Alpha virt. eigenvalues --    1.86515   1.87072   1.87395   1.88105   1.88508
 Alpha virt. eigenvalues --    1.89286   1.89901   1.90200   1.90256   1.90463
 Alpha virt. eigenvalues --    1.90833   1.91154   1.91360   1.92330   1.93419
 Alpha virt. eigenvalues --    1.94815   1.95203   1.95295   1.95485   1.95973
 Alpha virt. eigenvalues --    1.98177   1.99151   1.99384   1.99470   2.04374
 Alpha virt. eigenvalues --    2.06297   2.06763   2.08142   2.08317   2.08642
 Alpha virt. eigenvalues --    2.08759   2.09134   2.09499   2.10091   2.10779
 Alpha virt. eigenvalues --    2.11349   2.11878   2.12494   2.14741   2.15603
 Alpha virt. eigenvalues --    2.15948   2.16727   2.17192   2.17359   2.17768
 Alpha virt. eigenvalues --    2.20079   2.20456   2.20505   2.20806   2.20906
 Alpha virt. eigenvalues --    2.21141   2.22112   2.23924   2.25253   2.25694
 Alpha virt. eigenvalues --    2.26202   2.26455   2.27040   2.28176   2.28580
 Alpha virt. eigenvalues --    2.28870   2.29435   2.29918   2.33472   2.35569
 Alpha virt. eigenvalues --    2.36665   2.39332   2.40841   2.40984   2.43502
 Alpha virt. eigenvalues --    2.44233   2.50632   2.51831   2.57279   2.64804
 Alpha virt. eigenvalues --    2.64859   2.65013   2.65725   2.66056   2.66542
 Alpha virt. eigenvalues --    2.66770   2.66818   2.66909   2.67002   2.67027
 Alpha virt. eigenvalues --    2.67088   2.67155   2.67303   2.67344   2.67371
 Alpha virt. eigenvalues --    2.67643   2.67672   2.67843   2.67870   2.67925
 Alpha virt. eigenvalues --    2.68743   2.68926   2.69203   2.69344   2.70023
 Alpha virt. eigenvalues --    2.70125   2.70223   2.70459   2.70560   2.70694
 Alpha virt. eigenvalues --    2.70761   2.71334   2.71446   2.71495   2.71552
 Alpha virt. eigenvalues --    2.71647   2.71870   2.72533   2.72742   2.72912
 Alpha virt. eigenvalues --    2.72997   2.73098   2.73187   2.73292   2.73311
 Alpha virt. eigenvalues --    2.73416   2.73678   2.73815   2.73858   2.73994
 Alpha virt. eigenvalues --    2.74063   2.74165   2.74335   2.74555   2.74697
 Alpha virt. eigenvalues --    2.74763   2.74910   2.75091   2.75613   2.76011
 Alpha virt. eigenvalues --    2.76151   2.76247   2.76403   2.76708   2.76899
 Alpha virt. eigenvalues --    2.76999   2.77077   2.77116   2.78321   2.78452
 Alpha virt. eigenvalues --    2.78627   2.78785   2.79866   2.80127   2.80238
 Alpha virt. eigenvalues --    2.81032   2.81611   2.81659   2.81916   2.82154
 Alpha virt. eigenvalues --    2.82221   2.82711   2.83037   2.83280   2.83678
 Alpha virt. eigenvalues --    2.83784   2.83909   2.84020   2.84191   2.85018
 Alpha virt. eigenvalues --    2.85528   2.86082   2.86166   2.86378   2.86486
 Alpha virt. eigenvalues --    2.86590   2.86713   2.86829   2.87891   2.88303
 Alpha virt. eigenvalues --    2.88554   2.88802   2.89553   2.89597   2.89706
 Alpha virt. eigenvalues --    2.89867   2.89885   2.90019   2.90358   2.90425
 Alpha virt. eigenvalues --    2.90514   2.91634   2.91797   2.91893   2.91986
 Alpha virt. eigenvalues --    2.92250   2.92433   2.92703   2.92965   2.93088
 Alpha virt. eigenvalues --    2.93269   2.93498   2.93656   2.93925   2.94117
 Alpha virt. eigenvalues --    2.94154   2.95053   2.95252   2.95435   2.95712
 Alpha virt. eigenvalues --    2.95816   2.95900   2.96388   2.96568   2.96686
 Alpha virt. eigenvalues --    2.96734   2.96894   2.96948   2.97144   2.97435
 Alpha virt. eigenvalues --    2.97558   2.97698   2.97887   2.98321   2.99079
 Alpha virt. eigenvalues --    2.99297   2.99544   2.99730   2.99831   3.00053
 Alpha virt. eigenvalues --    3.00259   3.00497   3.01167   3.01384   3.01614
 Alpha virt. eigenvalues --    3.02780   3.03271   3.03409   3.03782   3.04790
 Alpha virt. eigenvalues --    3.06212   3.06406   3.06830   3.11047   3.11316
 Alpha virt. eigenvalues --    3.11410   3.11498   3.12081   3.12455   3.13611
 Alpha virt. eigenvalues --    3.13722   3.13864   3.16867   3.19937   3.21630
 Alpha virt. eigenvalues --    3.21845   3.23862   3.32524   3.40633   3.41065
 Alpha virt. eigenvalues --    3.41631   3.42514   3.44271   3.44378   3.45343
 Alpha virt. eigenvalues --    3.45737   3.45859   3.46830   3.46961   3.47423
 Alpha virt. eigenvalues --    3.48520   3.50866   3.51517   3.51861   3.53216
 Alpha virt. eigenvalues --    3.53437   3.54002   3.54413   3.54811   3.54891
 Alpha virt. eigenvalues --    3.55042   3.55134   3.55236   3.56127   3.57286
 Alpha virt. eigenvalues --    3.57461   3.57991   3.59207   3.59429   3.60009
 Alpha virt. eigenvalues --    3.60460   3.61043   3.61414   3.61739   3.62211
 Alpha virt. eigenvalues --    3.69679   3.74810  68.64574  68.65589  68.66695
 Alpha virt. eigenvalues --   68.68840  68.72692  68.73825  68.81599  68.82569
 Alpha virt. eigenvalues --   68.83125  68.85797  68.86956  68.88065 576.23001
 Alpha virt. eigenvalues --  576.23993 576.25077 576.27173 576.31036 576.32155
 Alpha virt. eigenvalues --  576.39781 576.40728 576.41268 576.43845 576.44975
 Alpha virt. eigenvalues --  576.46077
          Condensed to atoms (all electrons):
 Mulliken charges:
               1
     1  Cl  -0.894224
     2  C   -0.082505
     3  C    0.048959
     4  C   -0.081570
     5  C   -0.034305
     6  C   -0.033127
     7  C   -0.048962
     8  H    0.029059
     9  H    0.029138
    10  H    0.040995
    11  H    0.037011
    12  H    0.039358
    13  C   -0.127594
    14  C    0.033514
    15  H    0.019617
    16  H    0.035138
    17  H    0.027221
    18  O   -0.662154
    19  O   -0.660493
    20  O   -0.654879
    21  O   -0.662755
    22  W    1.730366
    23  W    1.671585
    24  W    1.682384
    25  W    1.693236
    26  W    1.674083
    27  W    1.725565
    28  W    1.615202
    29  W    1.683401
    30  O   -0.320202
    31  O   -0.365665
    32  O   -0.366825
    33  O   -0.358153
    34  O   -0.662005
    35  O   -0.669870
    36  O   -0.659964
    37  O   -0.662252
    38  O   -0.367105
    39  O   -0.365507
    40  O   -0.298461
    41  O   -0.364733
    42  O   -0.669225
    43  O   -0.662749
    44  O   -0.658111
    45  O   -0.665366
    46  O   -0.367098
    47  O   -0.320303
    48  O   -0.360039
    49  O   -0.363291
    50  W    1.670073
    51  W    1.676098
    52  W    1.682672
    53  W    1.682605
    54  O   -0.724124
    55  O   -0.705986
    56  O   -0.724456
    57  O   -0.722316
    58  O   -0.703748
    59  O   -0.724946
    60  O   -0.724186
    61  O   -0.718981
    62  O   -0.723707
    63  O   -0.705549
    64  O   -0.724999
    65  O   -0.725146
    66  O   -0.800988
    67  O   -0.800179
    68  O   -0.797649
    69  O   -0.808083
    70  K    0.864858
    71  K    0.862005
    72  K    0.861797
    73  V    1.188596
 Sum of Mulliken charges =  -1.00000
 Mulliken charges with hydrogens summed into heavy atoms:
               1
     1  Cl  -0.894224
     2  C   -0.053446
     3  C    0.048959
     4  C   -0.052432
     5  C    0.006689
     6  C    0.003884
     7  C   -0.009604
    13  C   -0.107977
    14  C    0.095873
    18  O   -0.662154
    19  O   -0.660493
    20  O   -0.654879
    21  O   -0.662755
    22  W    1.730366
    23  W    1.671585
    24  W    1.682384
    25  W    1.693236
    26  W    1.674083
    27  W    1.725565
    28  W    1.615202
    29  W    1.683401
    30  O   -0.320202
    31  O   -0.365665
    32  O   -0.366825
    33  O   -0.358153
    34  O   -0.662005
    35  O   -0.669870
    36  O   -0.659964
    37  O   -0.662252
    38  O   -0.367105
    39  O   -0.365507
    40  O   -0.298461
    41  O   -0.364733
    42  O   -0.669225
    43  O   -0.662749
    44  O   -0.658111
    45  O   -0.665366
    46  O   -0.367098
    47  O   -0.320303
    48  O   -0.360039
    49  O   -0.363291
    50  W    1.670073
    51  W    1.676098
    52  W    1.682672
    53  W    1.682605
    54  O   -0.724124
    55  O   -0.705986
    56  O   -0.724456
    57  O   -0.722316
    58  O   -0.703748
    59  O   -0.724946
    60  O   -0.724186
    61  O   -0.718981
    62  O   -0.723707
    63  O   -0.705549
    64  O   -0.724999
    65  O   -0.725146
    66  O   -0.800988
    67  O   -0.800179
    68  O   -0.797649
    69  O   -0.808083
    70  K    0.864858
    71  K    0.862005
    72  K    0.861797
    73  V    1.188596
 Electronic spatial extent (au):  <R**2>=         317326.4591
 Charge=             -1.0000 electrons
 Dipole moment (field-independent basis, Debye):
    X=             50.1217    Y=            -51.2958    Z=            -38.9735  Tot=             81.6234
 Quadrupole moment (field-independent basis, Debye-Ang):
   XX=          -1041.6652   YY=           -887.8962   ZZ=           -920.5281
   XY=            447.4618   XZ=            449.3325   YZ=           -478.3159
 Traceless Quadrupole moment (field-independent basis, Debye-Ang):
   XX=            -91.6354   YY=             62.1336   ZZ=             29.5018
   XY=            447.4618   XZ=            449.3325   YZ=           -478.3159
 Octapole moment (field-independent basis, Debye-Ang**2):
  XXX=          13206.2525  YYY=          -1074.8986  ZZZ=         -19248.0884  XYY=           6042.4339
  XXY=          -3545.9032  XXZ=          -9293.2564  XZZ=           7251.7550  YZZ=          -4172.5416
  YYZ=          -9038.0944  XYZ=           4725.4631
 Hexadecapole moment (field-independent basis, Debye-Ang**3):
 XXXX=        -155927.3391 YYYY=         -54189.2819 ZZZZ=        -347980.0947 XXXY=          35583.3096
 XXXZ=         120526.1526 YYYX=          20748.2796 YYYZ=         -12825.4400 ZZZX=         126768.0657
 ZZZY=         -35549.4417 XXYY=         -55225.9056 XXZZ=        -106525.4264 YYZZ=         -99852.8698
 XXYZ=         -41145.8039 YYXZ=          61257.8027 ZZXY=          49601.2151
 N-N= 2.096277892270D+04 E-N=-5.900985828026D+04  KE= 6.765171873597D+03
   1 Symmetry operations used in ECPInt.
 ECPInt:  NShTT=  127765 NPrTT=  468030 LenC2=   96454 LenP2D=  220671.
 LDataN:  DoStor=T MaxTD1= 9 Len=  602
 D1PCM: PCM CHGder 1st derivatives, ID1Alg=3 FixD1E=F DoIter=F DoCFld=F I1PDM=0.
 Calling FoFJK, ICntrl=      2127 FMM=T ISym2X=0 I1Cent= 0 IOpClX= 0 NMat=1 NMatS=1 NMatT=0.
 Defaulting to unpruned grid for atomic number  74.
 Defaulting to unpruned grid for atomic number  74.
 Defaulting to unpruned grid for atomic number  74.
 Defaulting to unpruned grid for atomic number  74.
 Defaulting to unpruned grid for atomic number  74.
 Defaulting to unpruned grid for atomic number  74.
 Defaulting to unpruned grid for atomic number  74.
 Defaulting to unpruned grid for atomic number  74.
 Defaulting to unpruned grid for atomic number  74.
 Defaulting to unpruned grid for atomic number  74.
 Defaulting to unpruned grid for atomic number  74.
 Defaulting to unpruned grid for atomic number  74.
 Defaulting to unpruned grid for atomic number  74.
 Defaulting to unpruned grid for atomic number  74.
 Defaulting to unpruned grid for atomic number  74.
 Defaulting to unpruned grid for atomic number  74.
 Defaulting to unpruned grid for atomic number  74.
 Defaulting to unpruned grid for atomic number  74.
 Defaulting to unpruned grid for atomic number  74.
 Defaulting to unpruned grid for atomic number  74.
 Defaulting to unpruned grid for atomic number  74.
 Defaulting to unpruned grid for atomic number  74.
 Defaulting to unpruned grid for atomic number  74.
 Defaulting to unpruned grid for atomic number  74.
 Defaulting to unpruned grid for atomic number  74.
 Defaulting to unpruned grid for atomic number  74.
 Defaulting to unpruned grid for atomic number  74.
 Defaulting to unpruned grid for atomic number  74.
 Defaulting to unpruned grid for atomic number  74.
 Defaulting to unpruned grid for atomic number  74.
 Defaulting to unpruned grid for atomic number  74.
 Defaulting to unpruned grid for atomic number  74.
 Defaulting to unpruned grid for atomic number  74.
 Defaulting to unpruned grid for atomic number  74.
 Defaulting to unpruned grid for atomic number  74.
 Defaulting to unpruned grid for atomic number  74.
 Defaulting to unpruned grid for atomic number  74.
 Defaulting to unpruned grid for atomic number  74.
 Defaulting to unpruned grid for atomic number  74.
 Defaulting to unpruned grid for atomic number  74.
 Defaulting to unpruned grid for atomic number  74.
 Defaulting to unpruned grid for atomic number  74.
 Defaulting to unpruned grid for atomic number  74.
 Defaulting to unpruned grid for atomic number  74.
 Defaulting to unpruned grid for atomic number  74.
 Defaulting to unpruned grid for atomic number  74.
 Defaulting to unpruned grid for atomic number  74.
 Defaulting to unpruned grid for atomic number  74.
 Defaulting to unpruned grid for atomic number  74.
 Defaulting to unpruned grid for atomic number  74.
 Defaulting to unpruned grid for atomic number  74.
 Defaulting to unpruned grid for atomic number  74.
 Defaulting to unpruned grid for atomic number  74.
 Defaulting to unpruned grid for atomic number  74.
 Defaulting to unpruned grid for atomic number  74.
 Defaulting to unpruned grid for atomic number  74.
 -------------------------------------------------------------------
 Center     Atomic                   Forces (Hartrees/Bohr)
 Number     Number              X              Y              Z
 -------------------------------------------------------------------
      1       17          -0.002898858    0.008122847    0.002537478
      2        6          -0.001415223   -0.000670973   -0.001508336
      3        6          -0.000938636   -0.001686713    0.003498692
      4        6           0.001470670    0.001914478    0.000599360
      5        6           0.000871698   -0.000089393    0.001253547
      6        6          -0.000385965   -0.000136092    0.000961462
      7        6          -0.000937856   -0.001341534    0.000500567
      8        1           0.000149596   -0.000047217   -0.000267143
      9        1           0.000012479   -0.000096467   -0.000137758
     10        1           0.000340851   -0.000730662   -0.000132416
     11        1          -0.000425222    0.000154389    0.000219624
     12        1           0.000478151   -0.000529604    0.000180756
     13        6           0.007609725    0.010493601   -0.006989075
     14        6          -0.002245362   -0.016666407   -0.000622823
     15        1          -0.001192571    0.000824084    0.000480178
     16        1           0.000094138   -0.000023722    0.000030105
     17        1          -0.001774809    0.001487885   -0.000734687
     18        8          -0.003078902    0.000581941    0.000822255
     19        8           0.002993543   -0.000825959    0.000843947
     20        8           0.002435420   -0.002737331   -0.000599411
     21        8          -0.002200787    0.002014366   -0.000870726
     22       74           0.001503474    0.009634624   -0.009362767
     23       74          -0.002365762   -0.009354051   -0.009460358
     24       74           0.006223791    0.007873925    0.009673702
     25       74          -0.006530353   -0.006756236    0.009525097
     26       74           0.007948221   -0.007429020   -0.010213546
     27       74          -0.008008907    0.007807518   -0.009824231
     28       74          -0.011178953    0.003011686    0.010140436
     29       74           0.010518468   -0.001875069    0.010063105
     30        8          -0.000650790   -0.003123484    0.002683898
     31        8           0.000235293    0.003102656    0.003080448
     32        8          -0.002245965   -0.002106031   -0.003081724
     33        8           0.002210690    0.001956672   -0.003168302
     34        8          -0.000875520   -0.000734496    0.003142457
     35        8           0.001325304    0.000243723    0.003248096
     36        8           0.000468784   -0.001285325   -0.003015143
     37        8          -0.000189209    0.001060182   -0.003190159
     38        8          -0.004505790   -0.001670973   -0.001272276
     39        8           0.004144758    0.001678927   -0.001076175
     40        8           0.002236532   -0.005715497    0.000924807
     41        8          -0.001043608    0.004508656    0.001093390
     42        8          -0.002011728   -0.002541885    0.001326584
     43        8           0.002216967    0.002441162    0.000984093
     44        8          -0.000439472   -0.003474137   -0.000597313
     45        8           0.000915509    0.003089216   -0.001237310
     46        8          -0.002528986    0.002545324    0.003222325
     47        8           0.002597747   -0.001925375    0.003292125
     48        8           0.003768748   -0.000883809   -0.003554554
     49        8          -0.003294212    0.000367874   -0.003327292
     50       74           0.013690475    0.004768643    0.002808317
     51       74          -0.013861668   -0.003740480    0.003121312
     52       74          -0.005223142    0.015135744   -0.003088080
     53       74           0.004453507   -0.013727853   -0.002630939
     54        8          -0.000537587    0.001542977    0.002166427
     55        8           0.000710975   -0.001664196    0.002010760
     56        8           0.001863421   -0.000063090   -0.002399324
     57        8          -0.001531969   -0.000591827   -0.001862574
     58        8           0.000173049   -0.002428007    0.001052012
     59        8           0.000466580    0.002438698    0.001544904
     60        8          -0.001712432   -0.001813516   -0.001515197
     61        8           0.001719517    0.001436504   -0.001578991
     62        8          -0.000983166    0.002053958    0.000904429
     63        8           0.001019569   -0.002426998    0.000556461
     64        8           0.002236110   -0.000047343   -0.001159564
     65        8          -0.002607316   -0.000359070   -0.000926358
     66        8          -0.025515049   -0.004711707    0.016158479
     67        8           0.025822503    0.005519000    0.016203917
     68        8           0.010687831   -0.024566947   -0.016304266
     69        8          -0.010455875    0.023469658   -0.016550545
     70       19           0.000258621   -0.000843939   -0.000620651
     71       19           0.001327001    0.000299748    0.001086614
     72       19          -0.000943683   -0.000315898    0.000600195
     73       23          -0.000464383    0.000177663    0.000337654
 -------------------------------------------------------------------
 Cartesian Forces:  Max     0.025822503 RMS     0.005850250

 GradGradGradGradGradGradGradGradGradGradGradGradGradGradGradGradGradGrad
 Berny optimization.
 Search for a local minimum.
 Step number   1 out of a maximum of    2
 All quantities printed in internal units (Hartrees-Bohrs-Radians)
 Second derivative matrix not updated -- first step.
 ITU=  0
     Eigenvalues ---    0.00000   0.00000   0.00000   0.00010   0.00093
     Eigenvalues ---    0.00095   0.00255   0.00552   0.00629   0.01644
     Eigenvalues ---    0.01947   0.02900   0.02925   0.03194   0.03410
     Eigenvalues ---    0.03433   0.03714   0.03720   0.04158   0.04491
     Eigenvalues ---    0.04591   0.04599   0.04603   0.04826   0.04840
     Eigenvalues ---    0.04994   0.05336   0.05543   0.05561   0.06350
     Eigenvalues ---    0.06389   0.06534   0.06784   0.06863   0.07048
     Eigenvalues ---    0.07307   0.07353   0.07613   0.08326   0.08367
     Eigenvalues ---    0.08698   0.08714   0.08888   0.08919   0.09745
     Eigenvalues ---    0.09881   0.10053   0.10385   0.10433   0.10521
     Eigenvalues ---    0.10771   0.10884   0.11506   0.11562   0.12005
     Eigenvalues ---    0.12043   0.12108   0.12515   0.12547   0.12599
     Eigenvalues ---    0.12670   0.12721   0.12839   0.13028   0.13063
     Eigenvalues ---    0.13811   0.13923   0.14239   0.14416   0.14704
     Eigenvalues ---    0.16742   0.16776   0.16965   0.17163   0.17577
     Eigenvalues ---    0.17666   0.18532   0.19744   0.19888   0.20172
     Eigenvalues ---    0.20774   0.21088   0.21788   0.21847   0.22029
     Eigenvalues ---    0.22441   0.23086   0.23322   0.23827   0.23850
     Eigenvalues ---    0.24544   0.24648   0.24835   0.25613   0.25819
     Eigenvalues ---    0.26161   0.26289   0.27527   0.27603   0.27796
     Eigenvalues ---    0.28298   0.28398   0.28840   0.29554   0.29975
     Eigenvalues ---    0.30540   0.30626   0.30739   0.30766   0.30873
     Eigenvalues ---    0.30972   0.31193   0.31345   0.31585   0.32404
     Eigenvalues ---    0.32571   0.32589   0.32688   0.32910   0.33519
     Eigenvalues ---    0.33593   0.34987   0.35466   0.35746   0.36748
     Eigenvalues ---    0.37433   0.37585   0.37640   0.38109   0.38438
     Eigenvalues ---    0.38714   0.39237   0.40184   0.40216   0.41259
     Eigenvalues ---    0.42229   0.42284   0.43585   0.43838   0.44803
     Eigenvalues ---    0.45374   0.45597   0.45826   0.47317   0.48183
     Eigenvalues ---    0.48398   0.48817   0.48853   0.49579   0.49855
     Eigenvalues ---    0.49890   0.50660   0.51414   0.51494   0.52039
     Eigenvalues ---    0.52974   0.53479   0.54927   0.58857   0.64395
     Eigenvalues ---    0.67530   0.76621   0.81503   0.82729   0.96936
     Eigenvalues ---    0.97276   0.98768   0.99244   1.02093   1.04465
     Eigenvalues ---    1.07199   1.11497   1.11998   1.12320   1.15947
     Eigenvalues ---    1.19295   1.19726   1.20556   1.22510   1.22885
     Eigenvalues ---    1.23165   1.26409   1.26761   1.26875   1.27173
     Eigenvalues ---    1.27588   1.29011   1.29185   1.44997   1.45436
     Eigenvalues ---    1.45530   1.47845   1.51519   1.51529   1.51938
     Eigenvalues ---    1.52574   1.55550   1.55585   1.56657   1.58243
     Eigenvalues ---    1.58456   1.59451   1.61521   1.64332   1.68859
     Eigenvalues ---    1.79644   1.82535   1.84806   1.85188   1.85976
     Eigenvalues ---    1.93789   1.98781   2.75060
 Eigenvalue     1 is   2.22D-16 Eigenvector:
                          Y11       Y12       Y6        Y7        Y10
   1                    0.17437   0.17437   0.17437   0.17437   0.17437
                          Y5        Y2        Y8        Y4        Y3
   1                    0.17437   0.17437   0.17437   0.17437   0.17437
 Eigenvalue     2 is   2.42D-07 Eigenvector:
                          Y16       X16       X11       Y11       Y15
   1                    0.31410  -0.27051   0.26660  -0.24214   0.23685
                          Y14       Z11       X14       X12       Y13
   1                    0.22898  -0.19471  -0.18958   0.18713   0.18563
 Eigenvalue     3 is   2.35D-06 Eigenvector:
                          X9        X10       Y12       X12       Y9
   1                    0.33221   0.29674   0.26452  -0.24570  -0.24559
                          Y8        Y10       X15       X8        X4
   1                    0.24492  -0.22670   0.21874  -0.21321   0.20625
 Quadratic step=2.878D+01 exceeds max=3.000D-01 adjusted using Lamda=-1.203D-02.
 Angle between NR and scaled steps=  36.89 degrees.
 Angle between quadratic step and forces=  66.70 degrees.
 Linear search not attempted -- first point.
 B after Tr=    -0.000501    0.007617    0.001652
         Rot=    1.000000   -0.000159    0.000010    0.000071 Ang=  -0.02 deg.
 Variable       Old X    -DE/DX   Delta X   Delta X   Delta X     New X
                                 (Linear)    (Quad)   (Total)
    X1      -18.28527  -0.00290   0.00000  -0.00281  -0.00147 -18.28674
    Y1       15.63578   0.00812   0.00000   0.00816   0.01207  15.64785
    Z1       19.91048   0.00254   0.00000   0.00265   0.00890  19.91938
    X2      -15.84040  -0.00142   0.00000  -0.00229  -0.00209 -15.84249
    Y2        8.09764  -0.00067   0.00000  -0.01804  -0.01548   8.08217
    Z2       23.05535  -0.00151   0.00000  -0.00235   0.00155  23.05690
    X3      -17.35863  -0.00094   0.00000   0.00325   0.00340 -17.35523
    Y3        7.48131  -0.00169   0.00000  -0.02204  -0.01860   7.46271
    Z3       20.95955   0.00350   0.00000  -0.00246   0.00122  20.96077
    X4      -19.07590   0.00147   0.00000  -0.00185  -0.00199 -19.07788
    Y4        5.46590   0.00191   0.00000  -0.00951  -0.00590   5.45999
    Z4       21.20757   0.00060   0.00000   0.01569   0.01870  21.22627
    X5      -19.29264   0.00087   0.00000  -0.00237  -0.00274 -19.29538
    Y5        4.13947  -0.00009   0.00000  -0.00651  -0.00359   4.13588
    Z5       23.46799   0.00125   0.00000   0.01973   0.02232  23.49030
    X6      -17.77308  -0.00039   0.00000  -0.01187  -0.01219 -17.78527
    Y6        4.77605  -0.00014   0.00000  -0.00010   0.00195   4.77800
    Z6       25.52763   0.00096   0.00000   0.02242   0.02524  25.55287
    X7      -16.04537  -0.00094   0.00000  -0.00626  -0.00630 -16.05166
    Y7        6.75927  -0.00134   0.00000  -0.00850  -0.00663   6.75265
    Z7       25.30809   0.00050   0.00000   0.00748   0.01095  25.31904
    X8      -14.48684   0.00015   0.00000   0.00653   0.00696 -14.47989
    Y8        9.65060  -0.00005   0.00000  -0.02538  -0.02297   9.62763
    Z8       22.93242  -0.00027   0.00000  -0.01105  -0.00663  22.92579
    X9      -20.27462   0.00001   0.00000   0.00188   0.00170 -20.27293
    Y9        4.96354  -0.00010   0.00000  -0.01683  -0.01254   4.95100
    Z9       19.60048  -0.00014   0.00000   0.01447   0.01729  19.61777
   X10      -20.66320   0.00034   0.00000   0.00669   0.00610 -20.65710
   Y10        2.60346  -0.00073   0.00000  -0.01584  -0.01278   2.59068
   Z10       23.62906  -0.00013   0.00000   0.01462   0.01669  23.64575
   X11      -17.91752  -0.00043   0.00000  -0.01802  -0.01852 -17.93604
   Y11        3.71895   0.00015   0.00000   0.00844   0.00995   3.72890
   Z11       27.29408   0.00022   0.00000   0.02671   0.02919  27.32327
   X12      -14.85963   0.00048   0.00000   0.00435   0.00436 -14.85527
   Y12        7.28314  -0.00053   0.00000  -0.01225  -0.01105   7.27209
   Z12       26.91574   0.00018   0.00000   0.00197   0.00564  26.92138
   X13      -17.27278   0.00761   0.00000   0.03437   0.03477 -17.23801
   Y13        8.90265   0.01049   0.00000  -0.06229  -0.05810   8.84456
   Z13       18.58755  -0.00699   0.00000  -0.03928  -0.03516  18.55238
   X14      -15.94923  -0.00225   0.00000   0.06231   0.06302 -15.88622
   Y14       11.04561  -0.01667   0.00000  -0.11375  -0.10961  10.93600
   Z14       18.18921  -0.00062   0.00000  -0.07446  -0.06965  18.11956
   X15      -18.44906  -0.00119   0.00000  -0.00660  -0.00628 -18.45534
   Y15        8.15219   0.00082   0.00000  -0.04339  -0.03854   8.11365
   Z15       17.05666   0.00048   0.00000  -0.01555  -0.01169  17.04498
   X16      -16.00770   0.00009   0.00000   0.05578   0.05665 -15.95105
   Y16       12.00867  -0.00002   0.00000  -0.11799  -0.11327  11.89541
   Z16       16.36906   0.00003   0.00000  -0.07593  -0.07082  16.29824
   X17      -14.66893  -0.00177   0.00000   0.02292   0.02372 -14.64522
   Y17       11.82836   0.00149   0.00000  -0.06115  -0.05764  11.77072
   Z17       19.60067  -0.00073   0.00000  -0.06927  -0.06417  19.53649
   X18       -1.84249  -0.00308   0.00000  -0.01738  -0.01865  -1.86114
   Y18       -3.44181   0.00058   0.00000   0.00351   0.00692  -3.43489
   Z18       14.08786   0.00082   0.00000   0.00856   0.00908  14.09694
   X19      -15.82603   0.00299   0.00000   0.01115   0.01001 -15.81602
   Y19       -2.50008  -0.00083   0.00000   0.00913   0.01453  -2.48555
   Z19       14.09946   0.00084   0.00000   0.01110   0.01166  14.11112
   X20      -13.24269   0.00244   0.00000   0.00980   0.00927 -13.23342
   Y20        2.52012  -0.00274   0.00000  -0.00861  -0.00538   2.51474
   Z20       19.81824  -0.00060   0.00000  -0.00365  -0.00146  19.81678
   X21       -4.40080  -0.00220   0.00000  -0.00913  -0.01120  -4.41200
   Y21       -8.31063   0.00201   0.00000   0.01439   0.01631  -8.29432
   Z21       19.94635  -0.00087   0.00000  -0.01042  -0.01148  19.93487
   X22       -6.38344   0.00150   0.00000  -0.00840  -0.00895  -6.39239
   Y22        1.34578   0.00963   0.00000   0.01580   0.02043   1.36621
   Z22       12.29080  -0.00936   0.00000  -0.00727  -0.00531  12.28549
   X23      -11.32800  -0.00237   0.00000   0.00358   0.00180 -11.32620
   Y23       -7.26340  -0.00935   0.00000  -0.00035   0.00494  -7.25846
   Z23       12.41876  -0.00946   0.00000  -0.00427  -0.00514  12.41362
   X24       -6.77323   0.00622   0.00000   0.01316   0.01247  -6.76076
   Y24        1.66209   0.00787   0.00000   0.00071   0.00245   1.66455
   Z24       21.53723   0.00967   0.00000   0.01075   0.01279  21.55003
   X25      -10.90294  -0.00653   0.00000  -0.01425  -0.01622 -10.91916
   Y25       -7.35200  -0.00676   0.00000   0.00466   0.00696  -7.34504
   Z25       21.67559   0.00953   0.00000   0.00412   0.00323  21.67882
   X26       -4.62090   0.00795   0.00000  -0.00366  -0.00509  -4.62599
   Y26       -4.88874  -0.00743   0.00000  -0.00624  -0.00178  -4.89052
   Z26       12.05254  -0.01021   0.00000  -0.00562  -0.00561  12.04693
   X27      -13.04978  -0.00801   0.00000  -0.00429  -0.00517 -13.05495
   Y27       -1.03049   0.00781   0.00000   0.02248   0.02816  -1.00233
   Z27       11.99894  -0.00982   0.00000  -0.00387  -0.00279  11.99615
   X28      -12.82184  -0.01118   0.00000  -0.00919  -0.01019 -12.83203
   Y28       -0.50257   0.00301   0.00000  -0.00305  -0.00055  -0.50312
   Z28       21.89805   0.01014   0.00000   0.00824   0.00948  21.90753
   X29       -4.82865   0.01052   0.00000   0.00882   0.00715  -4.82150
   Y29       -5.18530  -0.00188   0.00000   0.00818   0.00952  -5.17578
   Z29       21.96135   0.01006   0.00000   0.00556   0.00547  21.96682
   X30       -5.92543  -0.00065   0.00000   0.00653   0.00635  -5.91908
   Y30        3.60495  -0.00312   0.00000   0.00219   0.00746   3.61240
   Z30       10.08675   0.00268   0.00000  -0.00693  -0.00425  10.08250
   X31      -11.59507   0.00024   0.00000  -0.00989  -0.01196 -11.60703
   Y31       -9.62413   0.00310   0.00000   0.00714   0.01315  -9.61098
   Z31       10.25963   0.00308   0.00000   0.00051  -0.00111  10.25851
   X32       -5.02329  -0.00225   0.00000   0.00135   0.00085  -5.02244
   Y32        3.25081  -0.00211   0.00000   0.00482   0.00564   3.25645
   Z32       23.71175  -0.00308   0.00000   0.00599   0.00858  23.72032
   X33      -12.62622   0.00221   0.00000  -0.00255  -0.00478 -12.63100
   Y33       -8.88704   0.00196   0.00000  -0.00156   0.00028  -8.88676
   Z33       23.90428  -0.00317   0.00000  -0.00200  -0.00341  23.90087
   X34       -5.02800  -0.00088   0.00000  -0.01081  -0.01176  -5.03977
   Y34       -1.71850  -0.00073   0.00000   0.00041   0.00540  -1.71310
   Z34       10.55837   0.00314   0.00000   0.01173   0.01274  10.57112
   X35      -12.64381   0.00133   0.00000   0.00695   0.00563 -12.63818
   Y35       -4.30780   0.00024   0.00000   0.01401   0.02006  -4.28774
   Z35       10.62252   0.00325   0.00000   0.01383   0.01388  10.63640
   X36       -9.97065   0.00047   0.00000   0.00371   0.00289  -9.96776
   Y36        1.02049  -0.00129   0.00000  -0.01013  -0.00850   1.01199
   Z36       23.35853  -0.00302   0.00000  -0.00586  -0.00408  23.35445
   X37       -7.66260  -0.00019   0.00000  -0.00337  -0.00528  -7.66788
   Y37       -6.69994   0.00106   0.00000   0.01145   0.01273  -6.68721
   Z37       23.44912  -0.00319   0.00000  -0.01181  -0.01243  23.43669
   X38        0.64559  -0.00451   0.00000   0.00142   0.00056   0.64615
   Y38       -0.12843  -0.00167   0.00000  -0.00136   0.00061  -0.12781
   Z38       17.51682  -0.00127   0.00000  -0.00241  -0.00079  17.51603
   X39      -18.32075   0.00414   0.00000  -0.00678  -0.00843 -18.32918
   Y39       -5.69422   0.00168   0.00000   0.01308   0.01773  -5.67649
   Z39       17.60725  -0.00108   0.00000  -0.00045  -0.00095  17.60630
   X40      -12.03861   0.00224   0.00000   0.00841   0.00851 -12.03011
   Y40        6.45158  -0.00572   0.00000   0.00876   0.01289   6.46447
   Z40       16.39402   0.00092   0.00000   0.00985   0.01331  16.40733
   X41       -5.64006  -0.00104   0.00000   0.00174  -0.00083  -5.64090
   Y41      -12.27388   0.00451   0.00000   0.00489   0.00807 -12.26582
   Z41       16.52814   0.00109   0.00000  -0.00007  -0.00242  16.52572
   X42       -3.32344  -0.00201   0.00000  -0.01529  -0.01587  -3.33930
   Y42        1.38430  -0.00254   0.00000  -0.00150   0.00211   1.38641
   Z42       14.13874   0.00133   0.00000   0.01046   0.01249  14.15122
   X43      -14.35890   0.00222   0.00000   0.00948   0.00765 -14.35125
   Y43       -7.33529   0.00244   0.00000   0.01508   0.02022  -7.31508
   Z43       14.26523   0.00098   0.00000   0.00925   0.00830  14.27353
   X44       -8.46477  -0.00044   0.00000   0.00478   0.00448  -8.46029
   Y44        4.14513  -0.00347   0.00000  -0.01295  -0.01038   4.13476
   Z44       19.69644  -0.00060   0.00000  -0.00018   0.00262  19.69906
   X45       -9.19537   0.00092   0.00000  -0.00544  -0.00774  -9.20311
   Y45       -9.90463   0.00309   0.00000   0.01812   0.02075  -9.88388
   Z45       19.88077  -0.00124   0.00000  -0.01078  -0.01245  19.86832
   X46       -3.05795  -0.00253   0.00000  -0.00239  -0.00403  -3.06198
   Y46       -6.65325   0.00255   0.00000   0.00626   0.01119  -6.64207
   Z46        9.86993   0.00322   0.00000  -0.00235  -0.00287   9.86706
   X47      -14.70378   0.00260   0.00000  -0.00904  -0.00966 -14.71343
   Y47        0.49001  -0.00193   0.00000   0.01023   0.01686   0.50686
   Z47        9.73449   0.00329   0.00000   0.00337   0.00489   9.73938
   X48      -15.11542   0.00377   0.00000  -0.00060  -0.00162 -15.11704
   Y48       -0.30845  -0.00088   0.00000   0.00381   0.00593  -0.30252
   Z48       24.13346  -0.00355   0.00000   0.00368   0.00494  24.13839
   X49       -2.50665  -0.00329   0.00000   0.00128  -0.00046  -2.50711
   Y49       -5.42347   0.00037   0.00000  -0.00396  -0.00364  -5.42712
   Z49       24.16601  -0.00333   0.00000   0.00039   0.00027  24.16628
   X50       -2.31039   0.01369   0.00000   0.00414   0.00316  -2.30723
   Y50       -1.08752   0.00477   0.00000   0.00689   0.00954  -1.07798
   Z50       16.70333   0.00281   0.00000   0.01145   0.01271  16.71605
   X51      -15.36584  -0.01386   0.00000  -0.00947  -0.01098 -15.37682
   Y51       -4.75607  -0.00374   0.00000   0.00559   0.01008  -4.74599
   Z51       16.76971   0.00312   0.00000   0.01251   0.01236  16.78207
   X52      -11.12377  -0.00522   0.00000   0.00044   0.00011 -11.12366
   Y52        3.48373   0.01514   0.00000   0.01453   0.01832   3.50205
   Z52       17.09998  -0.00309   0.00000  -0.00598  -0.00344  17.09654
   X53       -6.56190   0.00445   0.00000  -0.00156  -0.00372  -6.56562
   Y53       -9.29824  -0.01373   0.00000  -0.00208   0.00099  -9.29726
   Z53       17.30877  -0.00263   0.00000  -0.01192  -0.01335  17.29543
   X54       -7.97179  -0.00054   0.00000  -0.00121  -0.00278  -7.97456
   Y54       -5.90281   0.00154   0.00000  -0.00242   0.00270  -5.90011
   Z54       11.46328   0.00217   0.00000  -0.00575  -0.00613  11.45715
   X55       -9.69544   0.00071   0.00000  -0.00550  -0.00623  -9.70167
   Y55       -0.10278  -0.00166   0.00000   0.01762   0.02302  -0.07976
   Z55       11.37156   0.00201   0.00000  -0.00553  -0.00410  11.36747
   X56      -11.64961   0.00186   0.00000  -0.00965  -0.01114 -11.66074
   Y56       -3.81471  -0.00006   0.00000  -0.00083   0.00131  -3.81340
   Z56       22.53310  -0.00240   0.00000   0.00579   0.00601  22.53910
   X57       -5.96596  -0.00153   0.00000   0.01001   0.00880  -5.95715
   Y57       -1.87719  -0.00059   0.00000   0.00442   0.00574  -1.87144
   Z57       22.51929  -0.00186   0.00000   0.01015   0.01109  22.53039
   X58       -8.20364   0.00017   0.00000  -0.00393  -0.00429  -8.20793
   Y58        2.98839  -0.00243   0.00000   0.01426   0.01835   3.00674
   Z58       14.82936   0.00105   0.00000  -0.00673  -0.00428  14.82508
   X59       -9.45733   0.00047   0.00000   0.00169  -0.00037  -9.45770
   Y59       -8.88627   0.00244   0.00000  -0.00095   0.00327  -8.88300
   Z59       14.96816   0.00154   0.00000  -0.00627  -0.00762  14.96054
   X60       -4.33129  -0.00171   0.00000   0.00941   0.00869  -4.32260
   Y60        1.04990  -0.00181   0.00000   0.00332   0.00551   1.05541
   Z60       19.03738  -0.00152   0.00000   0.00988   0.01178  19.04916
   X61      -13.32538   0.00172   0.00000  -0.01269  -0.01454 -13.33992
   Y61       -6.84413   0.00144   0.00000   0.00500   0.00844  -6.83569
   Z61       19.14911  -0.00158   0.00000   0.00579   0.00501  19.15412
   X62       -4.85928  -0.00098   0.00000  -0.00130  -0.00314  -4.86242
   Y62       -7.39922   0.00205   0.00000  -0.00213   0.00148  -7.39774
   Z62       14.84485   0.00090   0.00000  -0.00817  -0.00896  14.83589
   X63      -12.84525   0.00102   0.00000  -0.00212  -0.00269 -12.84794
   Y63        1.48648  -0.00243   0.00000   0.01616   0.02094   1.50742
   Z63       14.74039   0.00056   0.00000  -0.00465  -0.00277  14.73762
   X64      -14.76074   0.00224   0.00000  -0.00851  -0.00970 -14.77045
   Y64       -2.23000  -0.00005   0.00000   0.00332   0.00695  -2.22305
   Z64       19.19203  -0.00116   0.00000   0.00938   0.01004  19.20208
   X65       -2.90743  -0.00261   0.00000   0.00472   0.00334  -2.90409
   Y65       -3.56837  -0.00036   0.00000   0.00549   0.00744  -3.56094
   Z65       19.17765  -0.00093   0.00000   0.00740   0.00787  19.18551
   X66       -6.32191  -0.02552   0.00000  -0.04812  -0.04923  -6.37114
   Y66       -2.20345  -0.00471   0.00000  -0.00128   0.00244  -2.20101
   Z66       15.14509   0.01616   0.00000   0.02723   0.02805  15.17315
   X67      -11.34750   0.02582   0.00000   0.04199   0.04067 -11.30683
   Y67       -3.71948   0.00552   0.00000   0.01689   0.02130  -3.69818
   Z67       15.18372   0.01620   0.00000   0.02872   0.02897  15.21269
   X68       -9.63621   0.01069   0.00000   0.01959   0.01866  -9.61754
   Y68       -0.41068  -0.02457   0.00000  -0.03698  -0.03394  -0.44462
   Z68       18.79188  -0.01630   0.00000  -0.02470  -0.02338  18.76850
   X69       -8.00235  -0.01046   0.00000  -0.02150  -0.02313  -8.02548
   Y69       -5.39523   0.02347   0.00000   0.04436   0.04715  -5.34807
   Z69       18.85107  -0.01655   0.00000  -0.02706  -0.02726  18.82381
   X70       -6.08941   0.00026   0.00000  -0.00113  -0.00349  -6.09290
   Y70      -11.61288  -0.00084   0.00000  -0.00260   0.00250 -11.61038
   Z70       10.67435  -0.00062   0.00000  -0.00804  -0.01019  10.66417
   X71       -0.24277   0.00133   0.00000   0.01158   0.01063  -0.23214
   Y71       -0.01751   0.00030   0.00000   0.00307   0.00334  -0.01417
   Z71       23.27438   0.00109   0.00000   0.00992   0.01157  23.28595
   X72      -17.55874  -0.00094   0.00000  -0.01191  -0.01363 -17.57238
   Y72       -5.32774  -0.00032   0.00000   0.00286   0.00554  -5.32220
   Z72       23.43998   0.00060   0.00000   0.00749   0.00711  23.44710
   X73       -8.83087  -0.00046   0.00000  -0.00255  -0.00380  -8.83466
   Y73       -2.92472   0.00018   0.00000   0.00575   0.00924  -2.91548
   Z73       16.98842   0.00034   0.00000   0.00158   0.00214  16.99056
         Item               Value     Threshold  Converged?
 Maximum Force            0.025823     0.000450     NO 
 RMS     Force            0.005850     0.000300     NO 
 Maximum Displacement     0.113266     0.001800     NO 
 RMS     Displacement     0.020155     0.001200     NO 
 Predicted change in Energy=-5.622769D-03
 GradGradGradGradGradGradGradGradGradGradGradGradGradGradGradGradGradGrad

 Unable to Open any file for archive entry.
 1\1\GINC-X11P1N2\Force\RwB97XD\def2SVP\C8H8Cl1K3O40V1W12(1-)\MAYUMIAO\
 03-Jun-2024\0\\# def2svp wb97xd scrf=(smd,solvent=acetonitrile) g09def
 ault scf=(xqc,maxcycle=64) force guess=read nosymm\\Title Card\\-1,1\C
 l,-9.67614802,8.27409848,10.53617123\C,-8.38238056,4.28508892,12.20036
 475\C,-9.18579031,3.95893692,11.09131484\C,-10.09452993,2.89242746,11.
 22256295\C,-10.20922312,2.19051112,12.41872363\C,-9.40510982,2.5273762
 5,13.50863972\C,-8.49084331,3.57685252,13.39246345\H,-7.66610802,5.106
 87573,12.13531183\H,-10.72886892,2.62659326,10.37212947\H,-10.93449354
 ,1.37768987,12.50396127\H,-9.48154139,1.96798292,14.44340352\H,-7.8633
 7553,3.85407361,14.24319427\C,-9.14036268,4.71108169,9.83610548\C,-8.4
 3996994,5.84508437,9.62531782\H,-9.76282213,4.31395479,9.02599724\H,-8
 .47091111,6.35471572,8.66213143\H,-7.7624652,6.25929888,10.37222526\O,
 -0.97500389,-1.82132833,7.45497436\O,-8.37477543,-1.3229865,7.46111503
 \O,-7.0077288,1.33359144,10.48735932\O,-2.32880405,-4.39779814,10.5551
 5396\W,-3.37797076,0.71215574,6.50401046\W,-5.99451689,-3.84362706,6.5
 7172502\W,-3.58424099,0.87954044,11.39701327\W,-5.7695872,-3.89050987,
 11.47022651\W,-2.44527507,-2.58700923,6.37792851\W,-6.90564646,-0.5453
 1238,6.34956321\W,-6.78502301,-0.2659469,11.5879496\W,-2.55521213,-2.7
 4394514,11.62144385\O,-3.13560277,1.90765601,5.33767775\O,-6.13584761,
 -5.09287024,5.42916048\O,-2.65821016,1.72025641,12.54771591\O,-6.68150
 923,-4.70281835,12.64960024\O,-2.66070453,-0.90939023,5.58725131\O,-6.
 69081575,-2.27959059,5.62119781\O,-5.2762398,0.54002121,12.36080279\O,
 -4.05487262,-3.54545738,12.40873767\O,0.34163077,-0.06795987,9.2695000
 1\O,-9.6949223,-3.01324962,9.31735689\O,-6.37056012,3.41403036,8.67534
 36\O,-2.98459209,-6.49505911,8.74631721\O,-1.75868669,0.73254183,7.481
 89754\O,-7.59840392,-3.88167067,7.54883591\O,-4.47936536,2.19350902,10
 .42290799\O,-4.86598152,-5.24130252,10.52044972\O,-1.61819625,-3.52075
 09,5.22293976\O,-7.78090333,0.25930075,5.15126983\O,-7.99873663,-0.163
 22513,12.77087492\O,-1.32646139,-2.8699785,12.78810294\W,-1.22260451,-
 0.57548819,8.83902317\W,-8.13125468,-2.51680184,8.87415083\W,-5.886443
 23,1.84351287,9.04892007\W,-3.47240929,-4.92041814,9.15940915\O,-4.218
 48852,-3.12363185,6.0661044\O,-5.13060788,-0.05438632,6.01757164\O,-6.
 1647061,-2.01865819,11.92400036\O,-3.15704905,-0.99336562,11.91669727\
 O,-4.34117975,1.58138907,7.84736053\O,-5.00460179,-4.70241336,7.920807
 86\O,-2.29201942,0.55558479,10.07414873\O,-7.05148707,-3.62175667,10.1
 3327113\O,-2.5714194,-3.91549761,7.85555765\O,-6.79741138,0.78661381,7
 .80027921\O,-7.81104967,-1.18006532,10.1559869\O,-1.53854443,-1.888302
 18,10.1483732\O,-3.34541026,-1.16601486,8.01443814\O,-6.00483631,-1.96
 826442,8.03487743\O,-5.09926027,-0.21732216,9.94423294\O,-4.23465972,-
 2.85503072,9.97555731\K,-3.22237945,-6.14527375,5.64862521\K,-0.128466
 08,-0.00926398,12.31627289\K,-9.29168747,-2.81931865,12.40390572\V,-4.
 67309302,-1.54769478,8.98988475\\Version=ES64L-G16RevC.01\HF=-7327.702
 1891\RMSD=2.985e-09\RMSF=5.850e-03\Dipole=9.9736152,-21.9739362,2.3575
 795\Quadrupole=-68.128652,46.1948151,21.9338369,332.6768804,334.067690
 5,-355.6161799\PG=C01 [X(C8H8Cl1K3O40V1W12)]\\@
 The archive entry for this job was punched.


 BOOKS ARE LIGHTHOUSES ERECTED IN THE GREAT SEA OF TIME.
     -- E.P.WHIPPLE
 Job cpu time:       0 days  9 hours 43 minutes 17.5 seconds.
 Elapsed time:       0 days  0 hours 11 minutes  3.1 seconds.
 File lengths (MBytes):  RWF=   1257 Int=      0 D2E=      0 Chk=    249 Scr=      1
 Normal termination of Gaussian 16 at Mon Jun  3 04:21:48 2024.
