 Entering Gaussian System, Link 0=g16
 Input=JOBS/69_A.gjf
 Output=JOBS/69_A.log
 Initial command:
 /data/app/gaussian/C01-avx2//g16/l1.exe "/tmp/Gau-713160.inp" -scrdir="/tmp/"
 Entering Link 1 = /data/app/gaussian/C01-avx2//g16/l1.exe PID=    713161.
  
 Copyright (c) 1988-2019, Gaussian, Inc.  All Rights Reserved.
  
 This is part of the Gaussian(R) 16 program.  It is based on
 the Gaussian(R) 09 system (copyright 2009, Gaussian, Inc.),
 the Gaussian(R) 03 system (copyright 2003, Gaussian, Inc.),
 the Gaussian(R) 98 system (copyright 1998, Gaussian, Inc.),
 the Gaussian(R) 94 system (copyright 1995, Gaussian, Inc.),
 the Gaussian 92(TM) system (copyright 1992, Gaussian, Inc.),
 the Gaussian 90(TM) system (copyright 1990, Gaussian, Inc.),
 the Gaussian 88(TM) system (copyright 1988, Gaussian, Inc.),
 the Gaussian 86(TM) system (copyright 1986, Carnegie Mellon
 University), and the Gaussian 82(TM) system (copyright 1983,
 Carnegie Mellon University). Gaussian is a federally registered
 trademark of Gaussian, Inc.
  
 This software contains proprietary and confidential information,
 including trade secrets, belonging to Gaussian, Inc.
  
 This software is provided under written license and may be
 used, copied, transmitted, or stored only in accord with that
 written license.
  
 The following legend is applicable only to US Government
 contracts under FAR:
  
                    RESTRICTED RIGHTS LEGEND
  
 Use, reproduction and disclosure by the US Government is
 subject to restrictions as set forth in subparagraphs (a)
 and (c) of the Commercial Computer Software - Restricted
 Rights clause in FAR 52.227-19.
  
 Gaussian, Inc.
 340 Quinnipiac St., Bldg. 40, Wallingford CT 06492
  
  
 ---------------------------------------------------------------
 Warning -- This program may not be used in any manner that
 competes with the business of Gaussian, Inc. or will provide
 assistance to any competitor of Gaussian, Inc.  The licensee
 of this program is prohibited from giving any competitor of
 Gaussian, Inc. access to this program.  By using this program,
 the user acknowledges that Gaussian, Inc. is engaged in the
 business of creating and licensing software in the field of
 computational chemistry and represents and warrants to the
 licensee that it is not a competitor of Gaussian, Inc. and that
 it will not use this program in any manner prohibited above.
 ---------------------------------------------------------------
  

 Cite this work as:
 Gaussian 16, Revision C.01,
 M. J. Frisch, G. W. Trucks, H. B. Schlegel, G. E. Scuseria, 
 M. A. Robb, J. R. Cheeseman, G. Scalmani, V. Barone, 
 G. A. Petersson, H. Nakatsuji, X. Li, M. Caricato, A. V. Marenich, 
 J. Bloino, B. G. Janesko, R. Gomperts, B. Mennucci, H. P. Hratchian, 
 J. V. Ortiz, A. F. Izmaylov, J. L. Sonnenberg, D. Williams-Young, 
 F. Ding, F. Lipparini, F. Egidi, J. Goings, B. Peng, A. Petrone, 
 T. Henderson, D. Ranasinghe, V. G. Zakrzewski, J. Gao, N. Rega, 
 G. Zheng, W. Liang, M. Hada, M. Ehara, K. Toyota, R. Fukuda, 
 J. Hasegawa, M. Ishida, T. Nakajima, Y. Honda, O. Kitao, H. Nakai, 
 T. Vreven, K. Throssell, J. A. Montgomery, Jr., J. E. Peralta, 
 F. Ogliaro, M. J. Bearpark, J. J. Heyd, E. N. Brothers, K. N. Kudin, 
 V. N. Staroverov, T. A. Keith, R. Kobayashi, J. Normand, 
 K. Raghavachari, A. P. Rendell, J. C. Burant, S. S. Iyengar, 
 J. Tomasi, M. Cossi, J. M. Millam, M. Klene, C. Adamo, R. Cammi, 
 J. W. Ochterski, R. L. Martin, K. Morokuma, O. Farkas, 
 J. B. Foresman, and D. J. Fox, Gaussian, Inc., Wallingford CT, 2019.
 
 ******************************************
 Gaussian 16:  ES64L-G16RevC.01  3-Jul-2019
                 3-Jun-2024 
 ******************************************
 %chk=a.chk
 %nprocshared=56
 Will use up to   56 processors via shared memory.
 %mem=96gb
 ----------------------------------------------------------------------
 # def2svp wb97xd scrf=(smd,solvent=acetonitrile) g09default scf=(xqc,m
 axcycle=64) force guess=read nosymm
 ----------------------------------------------------------------------
 1/10=7,30=1,38=1,158=3,167=1/1,3;
 2/12=2,15=1,17=6,18=5,40=1/2;
 3/5=43,7=101,11=2,25=1,27=10,30=1,70=32201,71=1,72=2,74=-58,75=-4,116=-2,158=3/1,2,3;
 4/5=1,60=-1/1;
 5/5=2,7=64,8=3,13=1,38=6,53=2,87=10/2,8;
 6/7=2,8=2,9=2,10=2,28=1,87=10/1;
 7/29=1,30=1,87=10/1,2,3,16;
 1/10=7,30=1,158=3,167=1/3;
 99//99;
 Using 2006 physical constants.
 ----------
 Title Card
 ----------
 Symbolic Z-matrix:
 Charge = -1 Multiplicity = 1
 17                   -9.68217   8.27557   10.53671 
 6                    -8.38588   4.28812   12.19951 
 6                    -9.19091   3.96238   11.09143 
 6                    -10.09841   2.89487   11.22349 
 6                    -10.2094   2.19106   12.41891 
 6                    -9.40292   2.52692   13.50744 
 6                    -8.49058   3.57802   13.39075 
 1                    -7.67138   5.11135   12.13418 
 1                    -10.73471   2.62919   10.37437 
 1                    -10.93368   1.37738   12.50493 
 1                    -9.47591   1.96563   14.44131 
 1                    -7.86162   3.85516   14.2404 
 6                    -9.1465    4.71584   9.83686 
 6                    -8.44088   5.8465    9.6249 
 1                    -9.77346   4.32278   9.02824 
 1                    -8.47088   6.35663   8.66199 
 1                    -7.75859   6.2562    10.37005 
 8                    -0.97481  -1.82294   7.45407 
 8                    -8.37398  -1.3221    7.46078 
 8                    -7.00704   1.33235   10.48866 
 8                    -2.32788  -4.39792   10.55524 
 74                   -3.37619   0.71353   6.5061 
 74                   -5.99529  -3.84527   6.57336 
 74                   -3.58215   0.88032   11.39564 
 74                   -5.77004  -3.89253   11.46861 
 74                   -2.44663  -2.58691   6.37576 
 74                   -6.90326  -0.54606   6.34816 
 74                   -6.7825   -0.26721   11.5902 
 74                   -2.55611  -2.74411   11.6229 
 8                    -3.13287   1.91      5.34089 
 8                    -6.13752  -5.09463   5.43094 
 8                    -2.65628   1.7215    12.54594 
 8                    -6.68144  -4.70604   12.64769 
 8                    -2.66026  -0.90862   5.58717 
 8                    -6.68995  -2.28036   5.62135 
 8                    -5.27404   0.53928   12.36131 
 8                    -4.05521  -3.54653   12.40863 
 8                     0.34364  -0.07252   9.26873 
 8                    -9.69576  -3.00994   9.31722 
 8                    -6.37301   3.41264   8.67674 
 8                    -2.98159  -6.49489   8.74645 
 8                    -1.7572    0.73179   7.48309 
 8                    -7.5988   -3.8814    7.54969 
 8                    -4.47888   2.19338   10.42283 
 8                    -4.86514  -5.24196   10.51924 
 8                    -1.62014  -3.52035   5.22036 
 8                    -7.77821   0.25835   5.14943 
 8                    -7.99582  -0.16405   12.77348 
 8                    -1.3273   -2.8707    12.78957 
 74                   -1.22088  -0.57878   8.8388 
 74                   -8.13148  -2.51443   8.87428 
 74                   -5.88778   1.84242   9.04961 
 74                   -3.4699   -4.92031   9.15911 
 8                    -4.21901  -3.12407   6.06557 
 8                    -5.12907  -0.0538    6.01751 
 8                    -6.16422  -2.02023   11.92457 
 8                    -3.15584  -0.99349   11.91734 
 8                    -4.3407    1.58152   7.84837 
 8                    -5.00379  -4.70342   7.92053 
 8                    -2.29037   0.55461   10.07402 
 8                    -7.05221  -3.62215   10.13321 
 8                    -2.57091  -3.91577   7.85451 
 8                    -6.79681   0.78594   7.80024 
 8                    -7.81023  -1.17991   10.15696 
 8                    -1.53798  -1.8896    10.14882 
 8                    -3.34483  -1.16649   8.0143 
 8                    -6.00429  -1.96849   8.0351 
 8                    -5.09822  -0.2179    9.94469 
 8                    -4.23408  -2.85542   9.97546 
 19                   -3.22311  -6.14657   5.6486 
 19                   -0.12811  -0.01411   12.31666 
 19                   -9.29297  -2.81956   12.402 
 23                   -4.67246  -1.54808   8.98991 
 

 GradGradGradGradGradGradGradGradGradGradGradGradGradGradGradGradGradGrad
 Berny optimization.
 Initialization pass.
 Trust Radius=3.00D-01 FncErr=1.00D-07 GrdErr=1.00D-07 EigMax=2.50D+02 EigMin=1.00D-04
 Number of steps in this run=      2 maximum allowed number of steps=      2.
 GradGradGradGradGradGradGradGradGradGradGradGradGradGradGradGradGradGrad

 Symmetry turned off by external request.
 Stoichiometry    C8H8ClK3O40VW12(1-)
 Framework group  C1[X(C8H8ClK3O40VW12)]
 Deg. of freedom   213
 Full point group                 C1      NOp   1
                          Input orientation:                          
 ---------------------------------------------------------------------
 Center     Atomic      Atomic             Coordinates (Angstroms)
 Number     Number       Type             X           Y           Z
 ---------------------------------------------------------------------
      1         17           0       -9.682168    8.275567   10.536705
      2          6           0       -8.385881    4.288117   12.199511
      3          6           0       -9.190906    3.962381   11.091426
      4          6           0      -10.098415    2.894871   11.223491
      5          6           0      -10.209403    2.191061   12.418907
      6          6           0       -9.402920    2.526922   13.507441
      7          6           0       -8.490575    3.578020   13.390751
      8          1           0       -7.671377    5.111352   12.134177
      9          1           0      -10.734708    2.629195   10.374372
     10          1           0      -10.933679    1.377379   12.504932
     11          1           0       -9.475915    1.965626   14.441314
     12          1           0       -7.861618    3.855162   14.240396
     13          6           0       -9.146500    4.715838    9.836865
     14          6           0       -8.440879    5.846497    9.624901
     15          1           0       -9.773459    4.322783    9.028241
     16          1           0       -8.470878    6.356629    8.661990
     17          1           0       -7.758585    6.256200   10.370054
     18          8           0       -0.974806   -1.822943    7.454066
     19          8           0       -8.373985   -1.322104    7.460778
     20          8           0       -7.007040    1.332354   10.488658
     21          8           0       -2.327883   -4.397924   10.555244
     22         74           0       -3.376190    0.713535    6.506095
     23         74           0       -5.995293   -3.845274    6.573356
     24         74           0       -3.582150    0.880320   11.395638
     25         74           0       -5.770042   -3.892530   11.468608
     26         74           0       -2.446631   -2.586912    6.375758
     27         74           0       -6.903257   -0.546057    6.348162
     28         74           0       -6.782503   -0.267210   11.590199
     29         74           0       -2.556115   -2.744115   11.622904
     30          8           0       -3.132869    1.909998    5.340890
     31          8           0       -6.137518   -5.094634    5.430941
     32          8           0       -2.656280    1.721505   12.545940
     33          8           0       -6.681444   -4.706041   12.647687
     34          8           0       -2.660262   -0.908624    5.587169
     35          8           0       -6.689952   -2.280363    5.621352
     36          8           0       -5.274035    0.539281   12.361308
     37          8           0       -4.055214   -3.546526   12.408628
     38          8           0        0.343643   -0.072515    9.268734
     39          8           0       -9.695762   -3.009938    9.317219
     40          8           0       -6.373010    3.412640    8.676741
     41          8           0       -2.981590   -6.494887    8.746453
     42          8           0       -1.757198    0.731791    7.483091
     43          8           0       -7.598799   -3.881401    7.549692
     44          8           0       -4.478877    2.193380   10.422832
     45          8           0       -4.865137   -5.241957   10.519243
     46          8           0       -1.620138   -3.520354    5.220356
     47          8           0       -7.778211    0.258348    5.149434
     48          8           0       -7.995820   -0.164049   12.773475
     49          8           0       -1.327298   -2.870701   12.789567
     50         74           0       -1.220884   -0.578785    8.838804
     51         74           0       -8.131476   -2.514428    8.874285
     52         74           0       -5.887777    1.842419    9.049609
     53         74           0       -3.469902   -4.920310    9.159115
     54          8           0       -4.219012   -3.124073    6.065574
     55          8           0       -5.129073   -0.053801    6.017511
     56          8           0       -6.164223   -2.020235   11.924572
     57          8           0       -3.155836   -0.993488   11.917340
     58          8           0       -4.340698    1.581515    7.848371
     59          8           0       -5.003793   -4.703424    7.920534
     60          8           0       -2.290366    0.554614   10.074022
     61          8           0       -7.052209   -3.622154   10.133210
     62          8           0       -2.570910   -3.915768    7.854509
     63          8           0       -6.796806    0.785944    7.800236
     64          8           0       -7.810229   -1.179906   10.156965
     65          8           0       -1.537984   -1.889603   10.148816
     66          8           0       -3.344832   -1.166490    8.014301
     67          8           0       -6.004290   -1.968486    8.035097
     68          8           0       -5.098215   -0.217902    9.944690
     69          8           0       -4.234082   -2.855419    9.975459
     70         19           0       -3.223110   -6.146566    5.648597
     71         19           0       -0.128108   -0.014113   12.316661
     72         19           0       -9.292971   -2.819561   12.402002
     73         23           0       -4.672460   -1.548083    8.989909
 ---------------------------------------------------------------------
 Rotational constants (GHZ):           0.0171965           0.0131875           0.0129667
 Standard basis: def2SVP (5D, 7F)
  1217 basis functions,  2313 primitive gaussians,  1337 cartesian basis functions
   321 alpha electrons      321 beta electrons
       nuclear repulsion energy     20961.3440896930 Hartrees.
 NAtoms=   73 NActive=   73 NUniq=   73 SFac= 1.00D+00 NAtFMM=   60 NAOKFM=T Big=T
 Integral buffers will be    131072 words long.
 Raffenetti 2 integral format.
 Two-electron integral symmetry is turned off.
 Nuclear repulsion after empirical dispersion term =    20961.0680141860 Hartrees.
 Force PCM accuracy= 1.00D-10.
 ------------------------------------------------------------------------------
 Polarizable Continuum Model (PCM)
 =================================
 Model                : PCM (using non-symmetric T matrix).
 Atomic radii         : SMD-Coulomb.
 Polarization charges : Total charges.
 Charge compensation  : None.
 Solution method      : On-the-fly selection.
 Cavity type          : VdW (van der Waals Surface) (Alpha=1.000).
 Cavity algorithm     : GePol (No added spheres)
                        Default sphere list used, NSphG=   73.
                        Lebedev-Laikov grids with approx.  5.0 points / Ang**2.
                        Smoothing algorithm: York/Karplus (Gamma=1.0000).
                        Polarization charges: spherical gaussians, with
                                              point-specific exponents (IZeta= 3).
                        Self-potential: point-specific (ISelfS= 7).
                        Self-field    : sphere-specific E.n sum rule (ISelfD= 2).
 1st derivatives      : Analytical E(r).r(x)/FMM algorithm (CHGder, D1EAlg=3).
                        Cavity 1st derivative terms included.
 Solvent              : Acetonitrile, Eps=  35.688000 Eps(inf)=   1.806874
 ------------------------------------------------------------------------------
 ------------------------------------------------------------------------------
 Atomic radii for non-electrostatic terms: SMD-CDS.
 ------------------------------------------------------------------------------
 Nuclear repulsion after PCM non-electrostatic terms =    20961.0622565008 Hartrees.
 One-electron integrals computed using PRISM.
   1 Symmetry operations used in ECPInt.
 ECPInt:  NShTT=  127765 NPrTT=  468030 LenC2=   96438 LenP2D=  220645.
 LDataN:  DoStor=T MaxTD1= 8 Len=  415
 NBasis=  1217 RedAO= T EigKep=  1.38D-04  NBF=  1217
 NBsUse=  1217 1.00D-06 EigRej= -1.00D+00 NBFU=  1217
 Defaulting to unpruned grid for atomic number  74.
 Defaulting to unpruned grid for atomic number  74.
 Defaulting to unpruned grid for atomic number  74.
 Defaulting to unpruned grid for atomic number  74.
 Defaulting to unpruned grid for atomic number  74.
 Defaulting to unpruned grid for atomic number  74.
 Defaulting to unpruned grid for atomic number  74.
 Defaulting to unpruned grid for atomic number  74.
 Initial guess from the checkpoint file:  "a.chk"
 B after Tr=     0.000966   -0.000009    0.000326
         Rot=    1.000000   -0.000039    0.000001    0.000033 Ang=  -0.01 deg.
 Requested convergence on RMS density matrix=1.00D-08 within  64 cycles.
 Requested convergence on MAX density matrix=1.00D-06.
 Requested convergence on             energy=1.00D-06.
 No special actions if energy rises.
 Defaulting to unpruned grid for atomic number  74.
 Defaulting to unpruned grid for atomic number  74.
 Defaulting to unpruned grid for atomic number  74.
 Defaulting to unpruned grid for atomic number  74.
 Defaulting to unpruned grid for atomic number  74.
 Defaulting to unpruned grid for atomic number  74.
 Defaulting to unpruned grid for atomic number  74.
 Defaulting to unpruned grid for atomic number  74.
 Defaulting to unpruned grid for atomic number  74.
 Defaulting to unpruned grid for atomic number  74.
 Defaulting to unpruned grid for atomic number  74.
 Defaulting to unpruned grid for atomic number  74.
 Defaulting to unpruned grid for atomic number  74.
 Defaulting to unpruned grid for atomic number  74.
 Defaulting to unpruned grid for atomic number  74.
 Defaulting to unpruned grid for atomic number  74.
 Defaulting to unpruned grid for atomic number  74.
 Defaulting to unpruned grid for atomic number  74.
 Defaulting to unpruned grid for atomic number  74.
 Defaulting to unpruned grid for atomic number  74.
 Defaulting to unpruned grid for atomic number  74.
 Defaulting to unpruned grid for atomic number  74.
 Defaulting to unpruned grid for atomic number  74.
 Defaulting to unpruned grid for atomic number  74.
 Defaulting to unpruned grid for atomic number  74.
 Defaulting to unpruned grid for atomic number  74.
 Defaulting to unpruned grid for atomic number  74.
 Defaulting to unpruned grid for atomic number  74.
 Defaulting to unpruned grid for atomic number  74.
 Defaulting to unpruned grid for atomic number  74.
 Defaulting to unpruned grid for atomic number  74.
 Defaulting to unpruned grid for atomic number  74.
 Defaulting to unpruned grid for atomic number  74.
 Defaulting to unpruned grid for atomic number  74.
 Defaulting to unpruned grid for atomic number  74.
 Defaulting to unpruned grid for atomic number  74.
 Defaulting to unpruned grid for atomic number  74.
 Defaulting to unpruned grid for atomic number  74.
 Defaulting to unpruned grid for atomic number  74.
 Defaulting to unpruned grid for atomic number  74.
 Defaulting to unpruned grid for atomic number  74.
 Defaulting to unpruned grid for atomic number  74.
 Defaulting to unpruned grid for atomic number  74.
 Defaulting to unpruned grid for atomic number  74.
 Defaulting to unpruned grid for atomic number  74.
 Defaulting to unpruned grid for atomic number  74.
 Defaulting to unpruned grid for atomic number  74.
 Defaulting to unpruned grid for atomic number  74.
 Defaulting to unpruned grid for atomic number  74.
 Defaulting to unpruned grid for atomic number  74.
 Defaulting to unpruned grid for atomic number  74.
 Defaulting to unpruned grid for atomic number  74.
 Defaulting to unpruned grid for atomic number  74.
 Defaulting to unpruned grid for atomic number  74.
 Defaulting to unpruned grid for atomic number  74.
 Defaulting to unpruned grid for atomic number  74.
 Inv3:  Mode=1 IEnd=    87480000.
 Iteration    1 A*A^-1 deviation from unit magnitude is 3.33D-15 for    955.
 Iteration    1 A*A^-1 deviation from orthogonality  is 2.70D-15 for    970    724.
 Iteration    1 A^-1*A deviation from unit magnitude is 3.77D-15 for   3063.
 Iteration    1 A^-1*A deviation from orthogonality  is 3.13D-09 for   2876    992.
 Iteration    2 A*A^-1 deviation from unit magnitude is 4.44D-15 for    722.
 Iteration    2 A*A^-1 deviation from orthogonality  is 4.11D-15 for    539    209.
 Iteration    2 A^-1*A deviation from unit magnitude is 1.78D-15 for   1664.
 Iteration    2 A^-1*A deviation from orthogonality  is 5.29D-16 for   1437   1383.
 Error on total polarization charges =  0.01621
 SCF Done:  E(RwB97XD) =  -7327.70221238     A.U. after   12 cycles
            NFock= 12  Conv=0.27D-08     -V/T= 2.0832
 SMD-CDS (non-electrostatic) energy       (kcal/mol) =      -3.61
 (included in total energy above)
 QCSCF skips out because SCF is already converged.

 **********************************************************************

            Population analysis using the SCF Density.

 **********************************************************************

 Alpha  occ. eigenvalues -- -197.29324-130.00119-130.00031-130.00007-101.48350
 Alpha  occ. eigenvalues --  -22.62462 -19.33612 -19.33606 -19.33604 -19.33578
 Alpha  occ. eigenvalues --  -19.30733 -19.30696 -19.30693 -19.30691 -19.30667
 Alpha  occ. eigenvalues --  -19.30666 -19.30664 -19.30641 -19.30588 -19.30369
 Alpha  occ. eigenvalues --  -19.30348 -19.30173 -19.29364 -19.29353 -19.29344
 Alpha  occ. eigenvalues --  -19.29330 -19.29326 -19.29308 -19.29300 -19.29276
 Alpha  occ. eigenvalues --  -19.29235 -19.29214 -19.29206 -19.29195 -19.29183
 Alpha  occ. eigenvalues --  -19.29155 -19.29124 -19.29121 -19.29114 -19.29113
 Alpha  occ. eigenvalues --  -19.29102 -19.29086 -19.29038 -19.28997 -19.28983
 Alpha  occ. eigenvalues --  -19.28895 -19.11417 -19.11409 -19.11400 -13.37521
 Alpha  occ. eigenvalues --  -13.37424 -13.37404 -10.70450 -10.70443 -10.70443
 Alpha  occ. eigenvalues --  -10.70355 -10.70349 -10.70344 -10.70334 -10.70327
 Alpha  occ. eigenvalues --  -10.70326 -10.29856 -10.29314 -10.29294 -10.29036
 Alpha  occ. eigenvalues --  -10.28967 -10.28910 -10.28167 -10.27443  -9.38823
 Alpha  occ. eigenvalues --   -7.13653  -7.13597  -7.13593  -3.23308  -3.23302
 Alpha  occ. eigenvalues --   -3.23292  -3.23286  -3.23277  -3.23243  -3.23240
 Alpha  occ. eigenvalues --   -3.23239  -3.23222  -3.22959  -3.22941  -3.22763
 Alpha  occ. eigenvalues --   -2.91743  -1.94132  -1.94103  -1.94093  -1.87713
 Alpha  occ. eigenvalues --   -1.87664  -1.87653  -1.87616  -1.87488  -1.87465
 Alpha  occ. eigenvalues --   -1.87464  -1.87447  -1.87424  -1.87269  -1.87240
 Alpha  occ. eigenvalues --   -1.87089  -1.86628  -1.86509  -1.86499  -1.86483
 Alpha  occ. eigenvalues --   -1.86453  -1.86430  -1.86345  -1.86319  -1.86308
 Alpha  occ. eigenvalues --   -1.86295  -1.86276  -1.86261  -1.86144  -1.86131
 Alpha  occ. eigenvalues --   -1.86118  -1.86106  -1.86037  -1.86020  -1.85989
 Alpha  occ. eigenvalues --   -1.85916  -1.85894  -1.85797  -1.85715  -1.85659
 Alpha  occ. eigenvalues --   -1.51210  -1.51118  -1.51102  -1.13022  -1.11247
 Alpha  occ. eigenvalues --   -1.11163  -1.11162  -1.08969  -1.08534  -1.08501
 Alpha  occ. eigenvalues --   -1.08318  -1.07559  -1.07490  -1.07486  -1.06904
 Alpha  occ. eigenvalues --   -1.06891  -1.06873  -1.06305  -1.06280  -1.05354
 Alpha  occ. eigenvalues --   -1.05347  -1.04982  -1.04976  -1.04958  -1.04230
 Alpha  occ. eigenvalues --   -1.04224  -1.04191  -1.04047  -1.04016  -1.04001
 Alpha  occ. eigenvalues --   -1.03944  -1.03926  -1.03898  -1.03767  -1.03755
 Alpha  occ. eigenvalues --   -1.03622  -1.03572  -1.03309  -1.03275  -1.03153
 Alpha  occ. eigenvalues --   -1.03138  -1.03073  -1.02989  -0.94359  -0.86676
 Alpha  occ. eigenvalues --   -0.86593  -0.86581  -0.86504  -0.86485  -0.86484
 Alpha  occ. eigenvalues --   -0.86408  -0.86386  -0.86377  -0.86373  -0.82803
 Alpha  occ. eigenvalues --   -0.79715  -0.71591  -0.69650  -0.67987  -0.64595
 Alpha  occ. eigenvalues --   -0.63965  -0.63900  -0.63878  -0.63279  -0.63260
 Alpha  occ. eigenvalues --   -0.63150  -0.62938  -0.62660  -0.62598  -0.61947
 Alpha  occ. eigenvalues --   -0.61602  -0.61581  -0.61487  -0.61240  -0.61220
 Alpha  occ. eigenvalues --   -0.61177  -0.60418  -0.59470  -0.59444  -0.59431
 Alpha  occ. eigenvalues --   -0.59387  -0.59355  -0.58644  -0.58008  -0.57972
 Alpha  occ. eigenvalues --   -0.57893  -0.57052  -0.57029  -0.56998  -0.56277
 Alpha  occ. eigenvalues --   -0.56255  -0.56104  -0.55711  -0.54874  -0.54812
 Alpha  occ. eigenvalues --   -0.54768  -0.54517  -0.54238  -0.54116  -0.54103
 Alpha  occ. eigenvalues --   -0.54035  -0.53963  -0.53268  -0.53231  -0.53095
 Alpha  occ. eigenvalues --   -0.53052  -0.52913  -0.52741  -0.52711  -0.52657
 Alpha  occ. eigenvalues --   -0.52627  -0.52515  -0.52461  -0.52397  -0.51625
 Alpha  occ. eigenvalues --   -0.51609  -0.51375  -0.51340  -0.51311  -0.51259
 Alpha  occ. eigenvalues --   -0.51193  -0.51170  -0.50965  -0.50800  -0.50624
 Alpha  occ. eigenvalues --   -0.50599  -0.50597  -0.49946  -0.49926  -0.49301
 Alpha  occ. eigenvalues --   -0.49268  -0.49232  -0.49219  -0.49166  -0.49091
 Alpha  occ. eigenvalues --   -0.48905  -0.48084  -0.48037  -0.47923  -0.47628
 Alpha  occ. eigenvalues --   -0.47399  -0.47296  -0.47252  -0.47031  -0.46975
 Alpha  occ. eigenvalues --   -0.46903  -0.46612  -0.46609  -0.46482  -0.46213
 Alpha  occ. eigenvalues --   -0.46161  -0.46120  -0.45645  -0.45112  -0.44935
 Alpha  occ. eigenvalues --   -0.44899  -0.44205  -0.44159  -0.44042  -0.43520
 Alpha  occ. eigenvalues --   -0.43321  -0.43277  -0.43144  -0.43135  -0.43098
 Alpha  occ. eigenvalues --   -0.42765  -0.42741  -0.42704  -0.42621  -0.42607
 Alpha  occ. eigenvalues --   -0.42535  -0.42498  -0.42486  -0.42314  -0.42305
 Alpha  occ. eigenvalues --   -0.42279  -0.42054  -0.41922  -0.41881  -0.41868
 Alpha  occ. eigenvalues --   -0.41251  -0.41229  -0.41168  -0.41094  -0.40591
 Alpha  occ. eigenvalues --   -0.40577  -0.40568  -0.40352  -0.39459  -0.39446
 Alpha  occ. eigenvalues --   -0.37041  -0.32560  -0.29217  -0.25124  -0.25095
 Alpha  occ. eigenvalues --   -0.23463
 Alpha virt. eigenvalues --   -0.09369  -0.09166  -0.08356  -0.08309  -0.06909
 Alpha virt. eigenvalues --   -0.06886  -0.06804  -0.04381  -0.04102  -0.04050
 Alpha virt. eigenvalues --   -0.03730  -0.03502  -0.03444  -0.03227  -0.03083
 Alpha virt. eigenvalues --   -0.03041  -0.03020  -0.02237  -0.02189  -0.02164
 Alpha virt. eigenvalues --   -0.01486  -0.01459  -0.01404  -0.01305  -0.01226
 Alpha virt. eigenvalues --   -0.00056  -0.00032   0.00017   0.01401   0.01426
 Alpha virt. eigenvalues --    0.01877   0.01917   0.02005   0.02138   0.02180
 Alpha virt. eigenvalues --    0.02200   0.02261   0.02324   0.02779   0.02849
 Alpha virt. eigenvalues --    0.02926   0.02994   0.03029   0.04431   0.04538
 Alpha virt. eigenvalues --    0.06749   0.07234   0.07443   0.07488   0.07718
 Alpha virt. eigenvalues --    0.08007   0.08495   0.08514   0.08768   0.09139
 Alpha virt. eigenvalues --    0.09312   0.09372   0.09649   0.09853   0.10185
 Alpha virt. eigenvalues --    0.10256   0.10295   0.10329   0.10387   0.10627
 Alpha virt. eigenvalues --    0.10888   0.11039   0.11062   0.11618   0.11714
 Alpha virt. eigenvalues --    0.12202   0.13118   0.13218   0.13326   0.13607
 Alpha virt. eigenvalues --    0.13755   0.14451   0.14555   0.14660   0.14985
 Alpha virt. eigenvalues --    0.15503   0.16122   0.16329   0.16530   0.16699
 Alpha virt. eigenvalues --    0.16719   0.16906   0.17055   0.17223   0.17661
 Alpha virt. eigenvalues --    0.17892   0.18131   0.18195   0.18380   0.18553
 Alpha virt. eigenvalues --    0.18723   0.18932   0.19198   0.19325   0.19512
 Alpha virt. eigenvalues --    0.19564   0.20111   0.20260   0.20382   0.20581
 Alpha virt. eigenvalues --    0.20691   0.20848   0.20947   0.21270   0.21370
 Alpha virt. eigenvalues --    0.21427   0.21514   0.21620   0.21879   0.22037
 Alpha virt. eigenvalues --    0.22455   0.22712   0.22873   0.23164   0.23207
 Alpha virt. eigenvalues --    0.23419   0.23755   0.23940   0.24240   0.24558
 Alpha virt. eigenvalues --    0.24786   0.25210   0.25450   0.25633   0.25906
 Alpha virt. eigenvalues --    0.26012   0.26157   0.26440   0.26510   0.26746
 Alpha virt. eigenvalues --    0.26942   0.27240   0.27354   0.27419   0.27668
 Alpha virt. eigenvalues --    0.28005   0.28231   0.28297   0.28504   0.28698
 Alpha virt. eigenvalues --    0.29025   0.29589   0.29900   0.30460   0.30482
 Alpha virt. eigenvalues --    0.30714   0.30928   0.31215   0.31465   0.31783
 Alpha virt. eigenvalues --    0.32229   0.34755   0.35162   0.35806   0.36288
 Alpha virt. eigenvalues --    0.36595   0.36881   0.37207   0.38089   0.38395
 Alpha virt. eigenvalues --    0.38601   0.39121   0.39447   0.39586   0.40230
 Alpha virt. eigenvalues --    0.40666   0.40848   0.40903   0.41108   0.41669
 Alpha virt. eigenvalues --    0.42059   0.42287   0.42656   0.43258   0.43453
 Alpha virt. eigenvalues --    0.43678   0.44400   0.44671   0.44776   0.45135
 Alpha virt. eigenvalues --    0.45679   0.46260   0.46479   0.46660   0.47180
 Alpha virt. eigenvalues --    0.47366   0.47619   0.47842   0.47998   0.48164
 Alpha virt. eigenvalues --    0.48344   0.48431   0.48538   0.48649   0.48893
 Alpha virt. eigenvalues --    0.49135   0.49331   0.49404   0.49759   0.49847
 Alpha virt. eigenvalues --    0.50184   0.50262   0.50518   0.50866   0.51067
 Alpha virt. eigenvalues --    0.51625   0.51752   0.51922   0.52294   0.52431
 Alpha virt. eigenvalues --    0.52642   0.52875   0.53008   0.53136   0.53280
 Alpha virt. eigenvalues --    0.53548   0.53955   0.54172   0.54291   0.54439
 Alpha virt. eigenvalues --    0.55001   0.55443   0.55628   0.56346   0.56453
 Alpha virt. eigenvalues --    0.56784   0.57356   0.57584   0.58052   0.58289
 Alpha virt. eigenvalues --    0.58565   0.59076   0.59439   0.60225   0.60782
 Alpha virt. eigenvalues --    0.61444   0.62192   0.62631   0.62736   0.63153
 Alpha virt. eigenvalues --    0.64193   0.65273   0.65683   0.65751   0.65883
 Alpha virt. eigenvalues --    0.66144   0.66451   0.66953   0.67348   0.67427
 Alpha virt. eigenvalues --    0.67848   0.68216   0.69528   0.70181   0.71151
 Alpha virt. eigenvalues --    0.71413   0.71968   0.72156   0.72313   0.72316
 Alpha virt. eigenvalues --    0.72581   0.72754   0.73200   0.73296   0.73962
 Alpha virt. eigenvalues --    0.74588   0.74789   0.75438   0.75661   0.75810
 Alpha virt. eigenvalues --    0.76170   0.76687   0.76922   0.77181   0.77399
 Alpha virt. eigenvalues --    0.78137   0.78574   0.79063   0.79430   0.79563
 Alpha virt. eigenvalues --    0.80053   0.80325   0.80474   0.80710   0.81310
 Alpha virt. eigenvalues --    0.81521   0.81660   0.81995   0.82442   0.83163
 Alpha virt. eigenvalues --    0.83833   0.84190   0.84632   0.85472   0.86081
 Alpha virt. eigenvalues --    0.87014   0.87329   0.87932   0.88026   0.88586
 Alpha virt. eigenvalues --    0.88847   0.89035   0.89435   0.89502   0.90238
 Alpha virt. eigenvalues --    0.90502   0.90762   0.91221   0.91240   0.91624
 Alpha virt. eigenvalues --    0.92526   0.92919   0.93371   0.93862   0.94116
 Alpha virt. eigenvalues --    0.94260   0.94870   0.95629   0.95885   0.96524
 Alpha virt. eigenvalues --    0.96884   0.97075   0.97225   0.97778   0.97897
 Alpha virt. eigenvalues --    0.98168   0.98267   0.98448   0.98590   0.98754
 Alpha virt. eigenvalues --    0.98915   0.99423   1.00000   1.00075   1.00240
 Alpha virt. eigenvalues --    1.00812   1.01214   1.01474   1.01518   1.01629
 Alpha virt. eigenvalues --    1.02010   1.02158   1.02334   1.02480   1.02661
 Alpha virt. eigenvalues --    1.02882   1.03413   1.03458   1.03623   1.04010
 Alpha virt. eigenvalues --    1.04235   1.04288   1.04430   1.04706   1.04852
 Alpha virt. eigenvalues --    1.05041   1.05204   1.05247   1.05415   1.05809
 Alpha virt. eigenvalues --    1.05925   1.06360   1.06846   1.07028   1.07145
 Alpha virt. eigenvalues --    1.07500   1.07919   1.08673   1.08897   1.09160
 Alpha virt. eigenvalues --    1.09291   1.09746   1.09928   1.10029   1.10210
 Alpha virt. eigenvalues --    1.10724   1.10878   1.10885   1.10961   1.11215
 Alpha virt. eigenvalues --    1.11434   1.11627   1.11725   1.11983   1.12384
 Alpha virt. eigenvalues --    1.12693   1.13408   1.13654   1.14093   1.14790
 Alpha virt. eigenvalues --    1.15237   1.15746   1.16182   1.16243   1.16657
 Alpha virt. eigenvalues --    1.17135   1.17577   1.17912   1.18567   1.18919
 Alpha virt. eigenvalues --    1.19942   1.20505   1.20908   1.21089   1.21191
 Alpha virt. eigenvalues --    1.21365   1.21770   1.22029   1.22839   1.23562
 Alpha virt. eigenvalues --    1.24964   1.25817   1.26123   1.26421   1.26690
 Alpha virt. eigenvalues --    1.27195   1.27919   1.28319   1.28595   1.28665
 Alpha virt. eigenvalues --    1.28818   1.28925   1.29119   1.29279   1.30010
 Alpha virt. eigenvalues --    1.30122   1.30333   1.30479   1.30597   1.30724
 Alpha virt. eigenvalues --    1.30973   1.31998   1.32254   1.32801   1.33012
 Alpha virt. eigenvalues --    1.33173   1.33427   1.33648   1.33847   1.34061
 Alpha virt. eigenvalues --    1.34212   1.34413   1.34473   1.34513   1.34719
 Alpha virt. eigenvalues --    1.34974   1.35076   1.35628   1.35800   1.36046
 Alpha virt. eigenvalues --    1.36180   1.36382   1.36639   1.36769   1.36806
 Alpha virt. eigenvalues --    1.37056   1.37296   1.37648   1.37695   1.37752
 Alpha virt. eigenvalues --    1.38006   1.38335   1.38621   1.38903   1.38946
 Alpha virt. eigenvalues --    1.39283   1.39585   1.39713   1.39780   1.40030
 Alpha virt. eigenvalues --    1.40349   1.40454   1.40573   1.40711   1.40885
 Alpha virt. eigenvalues --    1.41098   1.41142   1.41416   1.41852   1.41982
 Alpha virt. eigenvalues --    1.42430   1.42732   1.43137   1.43218   1.43341
 Alpha virt. eigenvalues --    1.43630   1.43952   1.44350   1.44407   1.45554
 Alpha virt. eigenvalues --    1.46128   1.46527   1.47582   1.47595   1.47792
 Alpha virt. eigenvalues --    1.48197   1.48360   1.49233   1.49741   1.49949
 Alpha virt. eigenvalues --    1.50346   1.50898   1.51336   1.51778   1.53021
 Alpha virt. eigenvalues --    1.53398   1.55415   1.55727   1.55782   1.55847
 Alpha virt. eigenvalues --    1.56025   1.56270   1.56592   1.56623   1.57165
 Alpha virt. eigenvalues --    1.57233   1.57869   1.58393   1.58960   1.59107
 Alpha virt. eigenvalues --    1.59541   1.60024   1.60206   1.60416   1.60505
 Alpha virt. eigenvalues --    1.60601   1.61107   1.61976   1.62154   1.62641
 Alpha virt. eigenvalues --    1.63961   1.64294   1.64960   1.65521   1.66955
 Alpha virt. eigenvalues --    1.67647   1.68018   1.69661   1.70569   1.70856
 Alpha virt. eigenvalues --    1.71305   1.71647   1.72404   1.73468   1.74024
 Alpha virt. eigenvalues --    1.75008   1.75190   1.75309   1.75719   1.76455
 Alpha virt. eigenvalues --    1.76570   1.76710   1.77245   1.77511   1.78514
 Alpha virt. eigenvalues --    1.78602   1.78913   1.79126   1.80230   1.80427
 Alpha virt. eigenvalues --    1.81240   1.81352   1.82005   1.82256   1.82905
 Alpha virt. eigenvalues --    1.82950   1.83300   1.83764   1.83966   1.84442
 Alpha virt. eigenvalues --    1.85121   1.85419   1.85608   1.85960   1.86213
 Alpha virt. eigenvalues --    1.86515   1.87062   1.87389   1.88098   1.88488
 Alpha virt. eigenvalues --    1.89280   1.89896   1.90203   1.90239   1.90471
 Alpha virt. eigenvalues --    1.90829   1.91173   1.91375   1.92333   1.93409
 Alpha virt. eigenvalues --    1.94809   1.95185   1.95293   1.95474   1.95961
 Alpha virt. eigenvalues --    1.98162   1.99137   1.99372   1.99458   2.04386
 Alpha virt. eigenvalues --    2.06293   2.06733   2.08132   2.08291   2.08618
 Alpha virt. eigenvalues --    2.08739   2.09125   2.09507   2.10087   2.10758
 Alpha virt. eigenvalues --    2.11341   2.11875   2.12478   2.14745   2.15581
 Alpha virt. eigenvalues --    2.15944   2.16711   2.17179   2.17354   2.17759
 Alpha virt. eigenvalues --    2.20068   2.20444   2.20503   2.20802   2.20920
 Alpha virt. eigenvalues --    2.21136   2.22102   2.23898   2.25235   2.25660
 Alpha virt. eigenvalues --    2.26180   2.26427   2.27013   2.28140   2.28548
 Alpha virt. eigenvalues --    2.28838   2.29408   2.29877   2.33463   2.35547
 Alpha virt. eigenvalues --    2.36634   2.39248   2.40827   2.40989   2.43496
 Alpha virt. eigenvalues --    2.44218   2.50630   2.51819   2.57274   2.64814
 Alpha virt. eigenvalues --    2.64868   2.65025   2.65752   2.66063   2.66540
 Alpha virt. eigenvalues --    2.66767   2.66816   2.66906   2.67003   2.67024
 Alpha virt. eigenvalues --    2.67091   2.67161   2.67302   2.67343   2.67369
 Alpha virt. eigenvalues --    2.67644   2.67673   2.67845   2.67872   2.67928
 Alpha virt. eigenvalues --    2.68748   2.68928   2.69200   2.69337   2.70022
 Alpha virt. eigenvalues --    2.70119   2.70214   2.70439   2.70545   2.70682
 Alpha virt. eigenvalues --    2.70741   2.71330   2.71449   2.71493   2.71550
 Alpha virt. eigenvalues --    2.71648   2.71865   2.72512   2.72726   2.72903
 Alpha virt. eigenvalues --    2.72989   2.73090   2.73181   2.73285   2.73309
 Alpha virt. eigenvalues --    2.73409   2.73673   2.73810   2.73856   2.73995
 Alpha virt. eigenvalues --    2.74065   2.74170   2.74339   2.74556   2.74697
 Alpha virt. eigenvalues --    2.74765   2.74911   2.75092   2.75607   2.76019
 Alpha virt. eigenvalues --    2.76150   2.76244   2.76401   2.76708   2.76899
 Alpha virt. eigenvalues --    2.76995   2.77069   2.77108   2.78312   2.78441
 Alpha virt. eigenvalues --    2.78624   2.78776   2.79871   2.80135   2.80245
 Alpha virt. eigenvalues --    2.81030   2.81597   2.81646   2.81898   2.82140
 Alpha virt. eigenvalues --    2.82201   2.82711   2.83031   2.83278   2.83679
 Alpha virt. eigenvalues --    2.83783   2.83911   2.84023   2.84191   2.85007
 Alpha virt. eigenvalues --    2.85521   2.86072   2.86149   2.86395   2.86495
 Alpha virt. eigenvalues --    2.86598   2.86712   2.86827   2.87853   2.88285
 Alpha virt. eigenvalues --    2.88540   2.88780   2.89540   2.89584   2.89692
 Alpha virt. eigenvalues --    2.89857   2.89875   2.90012   2.90337   2.90407
 Alpha virt. eigenvalues --    2.90491   2.91623   2.91787   2.91876   2.91979
 Alpha virt. eigenvalues --    2.92247   2.92432   2.92696   2.92969   2.93094
 Alpha virt. eigenvalues --    2.93261   2.93490   2.93660   2.93915   2.94117
 Alpha virt. eigenvalues --    2.94158   2.95055   2.95259   2.95439   2.95711
 Alpha virt. eigenvalues --    2.95819   2.95901   2.96382   2.96567   2.96685
 Alpha virt. eigenvalues --    2.96732   2.96888   2.96943   2.97138   2.97435
 Alpha virt. eigenvalues --    2.97554   2.97695   2.97889   2.98319   2.99073
 Alpha virt. eigenvalues --    2.99288   2.99558   2.99736   2.99836   3.00057
 Alpha virt. eigenvalues --    3.00278   3.00505   3.01171   3.01372   3.01621
 Alpha virt. eigenvalues --    3.02780   3.03274   3.03408   3.03782   3.04761
 Alpha virt. eigenvalues --    3.06184   3.06377   3.06800   3.11041   3.11284
 Alpha virt. eigenvalues --    3.11378   3.11463   3.12068   3.12440   3.13601
 Alpha virt. eigenvalues --    3.13709   3.13849   3.16846   3.19950   3.21638
 Alpha virt. eigenvalues --    3.21847   3.23857   3.32519   3.40585   3.41028
 Alpha virt. eigenvalues --    3.41581   3.42450   3.44213   3.44323   3.45295
 Alpha virt. eigenvalues --    3.45676   3.45806   3.46791   3.46910   3.47377
 Alpha virt. eigenvalues --    3.48507   3.50827   3.51491   3.51832   3.53182
 Alpha virt. eigenvalues --    3.53395   3.53968   3.54384   3.54796   3.54891
 Alpha virt. eigenvalues --    3.55030   3.55099   3.55232   3.56081   3.57265
 Alpha virt. eigenvalues --    3.57432   3.57947   3.59180   3.59414   3.59982
 Alpha virt. eigenvalues --    3.60447   3.61020   3.61393   3.61710   3.62193
 Alpha virt. eigenvalues --    3.69688   3.74802  68.64609  68.65615  68.66726
 Alpha virt. eigenvalues --   68.68885  68.72705  68.73850  68.81599  68.82563
 Alpha virt. eigenvalues --   68.83104  68.85821  68.86976  68.88070 576.23035
 Alpha virt. eigenvalues --  576.24018 576.25108 576.27216 576.31048 576.32180
 Alpha virt. eigenvalues --  576.39780 576.40721 576.41247 576.43868 576.44994
 Alpha virt. eigenvalues --  576.46082
          Condensed to atoms (all electrons):
 Mulliken charges:
               1
     1  Cl  -0.894840
     2  C   -0.082487
     3  C    0.048672
     4  C   -0.081583
     5  C   -0.034419
     6  C   -0.033078
     7  C   -0.048876
     8  H    0.028953
     9  H    0.029211
    10  H    0.041058
    11  H    0.037076
    12  H    0.039361
    13  C   -0.127847
    14  C    0.034199
    15  H    0.019547
    16  H    0.035206
    17  H    0.027577
    18  O   -0.661948
    19  O   -0.660195
    20  O   -0.654831
    21  O   -0.662536
    22  W    1.729970
    23  W    1.671009
    24  W    1.681893
    25  W    1.692848
    26  W    1.673581
    27  W    1.725233
    28  W    1.614739
    29  W    1.682822
    30  O   -0.320270
    31  O   -0.365669
    32  O   -0.366613
    33  O   -0.358077
    34  O   -0.661839
    35  O   -0.669723
    36  O   -0.659768
    37  O   -0.662031
    38  O   -0.366857
    39  O   -0.365800
    40  O   -0.298474
    41  O   -0.364711
    42  O   -0.669081
    43  O   -0.662515
    44  O   -0.657916
    45  O   -0.665251
    46  O   -0.366943
    47  O   -0.320352
    48  O   -0.359964
    49  O   -0.363518
    50  W    1.669576
    51  W    1.675515
    52  W    1.682465
    53  W    1.682087
    54  O   -0.723783
    55  O   -0.705716
    56  O   -0.724247
    57  O   -0.722057
    58  O   -0.703516
    59  O   -0.724715
    60  O   -0.723883
    61  O   -0.718712
    62  O   -0.723468
    63  O   -0.705333
    64  O   -0.724753
    65  O   -0.724999
    66  O   -0.800837
    67  O   -0.800127
    68  O   -0.797536
    69  O   -0.807936
    70  K    0.865024
    71  K    0.862068
    72  K    0.861915
    73  V    1.188024
 Sum of Mulliken charges =  -1.00000
 Mulliken charges with hydrogens summed into heavy atoms:
               1
     1  Cl  -0.894840
     2  C   -0.053534
     3  C    0.048672
     4  C   -0.052372
     5  C    0.006639
     6  C    0.003998
     7  C   -0.009515
    13  C   -0.108300
    14  C    0.096981
    18  O   -0.661948
    19  O   -0.660195
    20  O   -0.654831
    21  O   -0.662536
    22  W    1.729970
    23  W    1.671009
    24  W    1.681893
    25  W    1.692848
    26  W    1.673581
    27  W    1.725233
    28  W    1.614739
    29  W    1.682822
    30  O   -0.320270
    31  O   -0.365669
    32  O   -0.366613
    33  O   -0.358077
    34  O   -0.661839
    35  O   -0.669723
    36  O   -0.659768
    37  O   -0.662031
    38  O   -0.366857
    39  O   -0.365800
    40  O   -0.298474
    41  O   -0.364711
    42  O   -0.669081
    43  O   -0.662515
    44  O   -0.657916
    45  O   -0.665251
    46  O   -0.366943
    47  O   -0.320352
    48  O   -0.359964
    49  O   -0.363518
    50  W    1.669576
    51  W    1.675515
    52  W    1.682465
    53  W    1.682087
    54  O   -0.723783
    55  O   -0.705716
    56  O   -0.724247
    57  O   -0.722057
    58  O   -0.703516
    59  O   -0.724715
    60  O   -0.723883
    61  O   -0.718712
    62  O   -0.723468
    63  O   -0.705333
    64  O   -0.724753
    65  O   -0.724999
    66  O   -0.800837
    67  O   -0.800127
    68  O   -0.797536
    69  O   -0.807936
    70  K    0.865024
    71  K    0.862068
    72  K    0.861915
    73  V    1.188024
 Electronic spatial extent (au):  <R**2>=         317343.4321
 Charge=             -1.0000 electrons
 Dipole moment (field-independent basis, Debye):
    X=             50.1455    Y=            -51.3311    Z=            -38.9877  Tot=             81.6670
 Quadrupole moment (field-independent basis, Debye-Ang):
   XX=          -1042.1781   YY=           -888.0256   ZZ=           -920.8394
   XY=            447.8903   XZ=            449.7049   YZ=           -478.6963
 Traceless Quadrupole moment (field-independent basis, Debye-Ang):
   XX=            -91.8304   YY=             62.3221   ZZ=             29.5083
   XY=            447.8903   XZ=            449.7049   YZ=           -478.6963
 Octapole moment (field-independent basis, Debye-Ang**2):
  XXX=          13213.2273  YYY=          -1076.9320  ZZZ=         -19253.5236  XYY=           6045.6379
  XXY=          -3551.9820  XXZ=          -9299.6627  XZZ=           7257.0008  YZZ=          -4176.6421
  YYZ=          -9040.3280  XYZ=           4730.0904
 Hexadecapole moment (field-independent basis, Debye-Ang**3):
 XXXX=        -156024.6039 YYYY=         -54221.5965 ZZZZ=        -348067.6411 XXXY=          35668.9074
 XXXZ=         120610.2592 YYYX=          20791.8077 YYYZ=         -12846.4915 ZZZX=         126841.8183
 ZZZY=         -35594.1929 XXYY=         -55281.4537 XXZZ=        -106606.9485 YYZZ=         -99886.2345
 XXYZ=         -41213.3560 YYXZ=          61297.5769 ZZXY=          49653.0349
 N-N= 2.096106225650D+04 E-N=-5.900640744885D+04  KE= 6.765171445669D+03
   1 Symmetry operations used in ECPInt.
 ECPInt:  NShTT=  127765 NPrTT=  468030 LenC2=   96438 LenP2D=  220645.
 LDataN:  DoStor=T MaxTD1= 9 Len=  602
 D1PCM: PCM CHGder 1st derivatives, ID1Alg=3 FixD1E=F DoIter=F DoCFld=F I1PDM=0.
 Calling FoFJK, ICntrl=      2127 FMM=T ISym2X=0 I1Cent= 0 IOpClX= 0 NMat=1 NMatS=1 NMatT=0.
 Defaulting to unpruned grid for atomic number  74.
 Defaulting to unpruned grid for atomic number  74.
 Defaulting to unpruned grid for atomic number  74.
 Defaulting to unpruned grid for atomic number  74.
 Defaulting to unpruned grid for atomic number  74.
 Defaulting to unpruned grid for atomic number  74.
 Defaulting to unpruned grid for atomic number  74.
 Defaulting to unpruned grid for atomic number  74.
 Defaulting to unpruned grid for atomic number  74.
 Defaulting to unpruned grid for atomic number  74.
 Defaulting to unpruned grid for atomic number  74.
 Defaulting to unpruned grid for atomic number  74.
 Defaulting to unpruned grid for atomic number  74.
 Defaulting to unpruned grid for atomic number  74.
 Defaulting to unpruned grid for atomic number  74.
 Defaulting to unpruned grid for atomic number  74.
 Defaulting to unpruned grid for atomic number  74.
 Defaulting to unpruned grid for atomic number  74.
 Defaulting to unpruned grid for atomic number  74.
 Defaulting to unpruned grid for atomic number  74.
 Defaulting to unpruned grid for atomic number  74.
 Defaulting to unpruned grid for atomic number  74.
 Defaulting to unpruned grid for atomic number  74.
 Defaulting to unpruned grid for atomic number  74.
 Defaulting to unpruned grid for atomic number  74.
 Defaulting to unpruned grid for atomic number  74.
 Defaulting to unpruned grid for atomic number  74.
 Defaulting to unpruned grid for atomic number  74.
 Defaulting to unpruned grid for atomic number  74.
 Defaulting to unpruned grid for atomic number  74.
 Defaulting to unpruned grid for atomic number  74.
 Defaulting to unpruned grid for atomic number  74.
 Defaulting to unpruned grid for atomic number  74.
 Defaulting to unpruned grid for atomic number  74.
 Defaulting to unpruned grid for atomic number  74.
 Defaulting to unpruned grid for atomic number  74.
 Defaulting to unpruned grid for atomic number  74.
 Defaulting to unpruned grid for atomic number  74.
 Defaulting to unpruned grid for atomic number  74.
 Defaulting to unpruned grid for atomic number  74.
 Defaulting to unpruned grid for atomic number  74.
 Defaulting to unpruned grid for atomic number  74.
 Defaulting to unpruned grid for atomic number  74.
 Defaulting to unpruned grid for atomic number  74.
 Defaulting to unpruned grid for atomic number  74.
 Defaulting to unpruned grid for atomic number  74.
 Defaulting to unpruned grid for atomic number  74.
 Defaulting to unpruned grid for atomic number  74.
 Defaulting to unpruned grid for atomic number  74.
 Defaulting to unpruned grid for atomic number  74.
 Defaulting to unpruned grid for atomic number  74.
 Defaulting to unpruned grid for atomic number  74.
 Defaulting to unpruned grid for atomic number  74.
 Defaulting to unpruned grid for atomic number  74.
 Defaulting to unpruned grid for atomic number  74.
 Defaulting to unpruned grid for atomic number  74.
 -------------------------------------------------------------------
 Center     Atomic                   Forces (Hartrees/Bohr)
 Number     Number              X              Y              Z
 -------------------------------------------------------------------
      1       17          -0.002807851    0.008045656    0.002502016
      2        6          -0.001440467   -0.000664915   -0.001536008
      3        6          -0.000871848   -0.001658298    0.003560493
      4        6           0.001445742    0.001934290    0.000475917
      5        6           0.000881144   -0.000127819    0.001346039
      6        6          -0.000398229   -0.000114385    0.000888317
      7        6          -0.000925670   -0.001354267    0.000532020
      8        1           0.000180166   -0.000035172   -0.000248644
      9        1           0.000057304   -0.000056439   -0.000123971
     10        1           0.000358528   -0.000714016   -0.000170227
     11        1          -0.000453347    0.000158458    0.000230209
     12        1           0.000480266   -0.000542938    0.000189654
     13        6           0.007656360    0.010474708   -0.006982102
     14        6          -0.002393014   -0.016686760   -0.000609807
     15        1          -0.001163226    0.000792352    0.000490882
     16        1           0.000001354    0.000002511    0.000025273
     17        1          -0.001788791    0.001503949   -0.000699208
     18        8          -0.003060607    0.000607890    0.000824330
     19        8           0.002999415   -0.000833748    0.000838577
     20        8           0.002431416   -0.002714330   -0.000611659
     21        8          -0.002215000    0.001985122   -0.000868753
     22       74           0.001523659    0.009625507   -0.009390312
     23       74          -0.002338570   -0.009378380   -0.009526713
     24       74           0.006125867    0.007769397    0.009571057
     25       74          -0.006593474   -0.006819396    0.009643427
     26       74           0.007864868   -0.007268670   -0.010021013
     27       74          -0.008036823    0.007873437   -0.009862550
     28       74          -0.011162953    0.003032706    0.010103879
     29       74           0.010589993   -0.001877224    0.010068227
     30        8          -0.000686048   -0.003183737    0.002677417
     31        8           0.000262165    0.003172074    0.003109590
     32        8          -0.002183772   -0.002077253   -0.002986597
     33        8           0.002278814    0.002054324   -0.003257192
     34        8          -0.000879779   -0.000764912    0.003135651
     35        8           0.001308986    0.000256462    0.003252350
     36        8           0.000447180   -0.001271670   -0.003012525
     37        8          -0.000180759    0.001048361   -0.003187830
     38        8          -0.004292442   -0.001562631   -0.001202206
     39        8           0.004352765    0.001709005   -0.001121577
     40        8           0.002238806   -0.005564881    0.000874715
     41        8          -0.001061315    0.004483274    0.001070440
     42        8          -0.002005564   -0.002549751    0.001312786
     43        8           0.002215955    0.002435480    0.000970802
     44        8          -0.000436195   -0.003473118   -0.000593055
     45        8           0.000909422    0.003073382   -0.001231588
     46        8          -0.002421601    0.002453276    0.003107419
     47        8           0.002617424   -0.001945157    0.003349552
     48        8           0.003753783   -0.000884371   -0.003563937
     49        8          -0.003340647    0.000358937   -0.003360800
     50       74           0.013379624    0.004692504    0.002714133
     51       74          -0.014074240   -0.003829702    0.003190617
     52       74          -0.005123043    0.014956459   -0.003026351
     53       74           0.004432719   -0.013687020   -0.002634577
     54        8          -0.000545078    0.001533812    0.002168866
     55        8           0.000683443   -0.001688059    0.002019609
     56        8           0.001882254   -0.000051832   -0.002411853
     57        8          -0.001538629   -0.000588579   -0.001865401
     58        8           0.000157082   -0.002420706    0.001063895
     59        8           0.000445523    0.002460968    0.001567932
     60        8          -0.001698874   -0.001813382   -0.001505961
     61        8           0.001750632    0.001449113   -0.001600309
     62        8          -0.000986681    0.002043914    0.000914097
     63        8           0.001021529   -0.002427041    0.000557453
     64        8           0.002242615   -0.000044165   -0.001164770
     65        8          -0.002605712   -0.000365761   -0.000923202
     66        8          -0.025524150   -0.004717022    0.016182109
     67        8           0.025724972    0.005478229    0.016151100
     68        8           0.010660261   -0.024541475   -0.016306625
     69        8          -0.010445891    0.023395302   -0.016500398
     70       19           0.000257782   -0.000831705   -0.000615853
     71       19           0.001341923    0.000332119    0.001099355
     72       19          -0.000923435   -0.000307955    0.000596910
     73       23          -0.000358018    0.000245667    0.000346456
 -------------------------------------------------------------------
 Cartesian Forces:  Max     0.025724972 RMS     0.005838864

 GradGradGradGradGradGradGradGradGradGradGradGradGradGradGradGradGradGrad
 Berny optimization.
 Search for a local minimum.
 Step number   1 out of a maximum of    2
 All quantities printed in internal units (Hartrees-Bohrs-Radians)
 Second derivative matrix not updated -- first step.
 ITU=  0
     Eigenvalues ---    0.00000   0.00000   0.00000   0.00010   0.00093
     Eigenvalues ---    0.00095   0.00255   0.00553   0.00627   0.01645
     Eigenvalues ---    0.01947   0.02899   0.02924   0.03192   0.03408
     Eigenvalues ---    0.03431   0.03713   0.03719   0.04157   0.04489
     Eigenvalues ---    0.04589   0.04595   0.04601   0.04824   0.04838
     Eigenvalues ---    0.04994   0.05334   0.05540   0.05557   0.06348
     Eigenvalues ---    0.06386   0.06534   0.06783   0.06863   0.07048
     Eigenvalues ---    0.07307   0.07349   0.07614   0.08321   0.08364
     Eigenvalues ---    0.08695   0.08709   0.08886   0.08915   0.09746
     Eigenvalues ---    0.09873   0.10049   0.10381   0.10428   0.10518
     Eigenvalues ---    0.10765   0.10883   0.11499   0.11552   0.11999
     Eigenvalues ---    0.12036   0.12100   0.12510   0.12545   0.12593
     Eigenvalues ---    0.12659   0.12723   0.12837   0.13019   0.13055
     Eigenvalues ---    0.13807   0.13918   0.14230   0.14403   0.14702
     Eigenvalues ---    0.16728   0.16761   0.16950   0.17163   0.17575
     Eigenvalues ---    0.17664   0.18528   0.19734   0.19876   0.20164
     Eigenvalues ---    0.20762   0.21084   0.21767   0.21822   0.22027
     Eigenvalues ---    0.22424   0.23076   0.23316   0.23814   0.23834
     Eigenvalues ---    0.24536   0.24636   0.24824   0.25605   0.25786
     Eigenvalues ---    0.26142   0.26267   0.27515   0.27593   0.27783
     Eigenvalues ---    0.28294   0.28399   0.28831   0.29543   0.29974
     Eigenvalues ---    0.30535   0.30621   0.30737   0.30764   0.30874
     Eigenvalues ---    0.30969   0.31186   0.31335   0.31582   0.32399
     Eigenvalues ---    0.32557   0.32583   0.32692   0.32908   0.33519
     Eigenvalues ---    0.33594   0.34974   0.35454   0.35732   0.36733
     Eigenvalues ---    0.37423   0.37563   0.37630   0.38081   0.38423
     Eigenvalues ---    0.38701   0.39228   0.40173   0.40208   0.41262
     Eigenvalues ---    0.42219   0.42278   0.43578   0.43804   0.44796
     Eigenvalues ---    0.45367   0.45594   0.45808   0.47263   0.48149
     Eigenvalues ---    0.48372   0.48806   0.48827   0.49560   0.49856
     Eigenvalues ---    0.49872   0.50641   0.51418   0.51450   0.52001
     Eigenvalues ---    0.52955   0.53459   0.54858   0.58875   0.64383
     Eigenvalues ---    0.67529   0.76613   0.81496   0.82726   0.96927
     Eigenvalues ---    0.97276   0.98763   0.99233   1.02125   1.04460
     Eigenvalues ---    1.07182   1.11516   1.12009   1.12314   1.15969
     Eigenvalues ---    1.19327   1.19751   1.20555   1.22548   1.22912
     Eigenvalues ---    1.23206   1.26382   1.26772   1.26880   1.27167
     Eigenvalues ---    1.27599   1.28998   1.29165   1.44961   1.45410
     Eigenvalues ---    1.45513   1.47831   1.51480   1.51503   1.51889
     Eigenvalues ---    1.52567   1.55511   1.55567   1.56571   1.58202
     Eigenvalues ---    1.58430   1.59436   1.61481   1.64317   1.68336
     Eigenvalues ---    1.79047   1.81988   1.84226   1.84577   1.85376
     Eigenvalues ---    1.93122   1.98213   2.72734
 Eigenvalue     1 is   0.00D+00 Eigenvector:
                          Y11       Y6        Y12       Y10       Y7
   1                    0.17438   0.17438   0.17438   0.17438   0.17438
                          Y5        Y2        Y4        Y8        Y9
   1                    0.17438   0.17438   0.17438   0.17438   0.17438
 Eigenvalue     2 is   2.44D-07 Eigenvector:
                          Y16       X16       X11       Y11       Y15
   1                    0.31421  -0.27055   0.26662  -0.24173   0.23617
                          Y14       Z11       X14       X12       Y13
   1                    0.22911  -0.19558  -0.18964   0.18672   0.18536
 Eigenvalue     3 is   2.33D-06 Eigenvector:
                          X9        X10       Y12       Y9        X12
   1                    0.33193   0.29659   0.26489  -0.24606  -0.24574
                          Y8        Y10       X15       X8        X4
   1                    0.24425  -0.22618   0.21792  -0.21351   0.20601
 Quadratic step=2.829D+01 exceeds max=3.000D-01 adjusted using Lamda=-1.182D-02.
 Angle between NR and scaled steps=  36.82 degrees.
 Angle between quadratic step and forces=  66.75 degrees.
 Linear search not attempted -- first point.
 B after Tr=    -0.000434    0.007578    0.001677
         Rot=    1.000000   -0.000160    0.000010    0.000077 Ang=  -0.02 deg.
 Variable       Old X    -DE/DX   Delta X   Delta X   Delta X     New X
                                 (Linear)    (Quad)   (Total)
    X1      -18.29665  -0.00281   0.00000  -0.00272  -0.00117 -18.29782
    Y1       15.63855   0.00805   0.00000   0.00808   0.01209  15.65065
    Z1       19.91149   0.00250   0.00000   0.00261   0.00891  19.92040
    X2      -15.84702  -0.00144   0.00000  -0.00153  -0.00120 -15.84822
    Y2        8.10337  -0.00066   0.00000  -0.01827  -0.01564   8.08772
    Z2       23.05373  -0.00154   0.00000  -0.00195   0.00198  23.05572
    X3      -17.36830  -0.00087   0.00000   0.00433   0.00460 -17.36369
    Y3        7.48782  -0.00166   0.00000  -0.02246  -0.01892   7.46889
    Z3       20.95976   0.00356   0.00000  -0.00220   0.00150  20.96126
    X4      -19.08324   0.00145   0.00000  -0.00086  -0.00090 -19.08414
    Y4        5.47051   0.00193   0.00000  -0.00976  -0.00605   5.46447
    Z4       21.20932   0.00048   0.00000   0.01546   0.01848  21.22781
    X5      -19.29297   0.00088   0.00000  -0.00209  -0.00238 -19.29536
    Y5        4.14051  -0.00013   0.00000  -0.00665  -0.00362   4.13688
    Z5       23.46833   0.00135   0.00000   0.01956   0.02216  23.49049
    X6      -17.76894  -0.00040   0.00000  -0.01222  -0.01246 -17.78140
    Y6        4.77519  -0.00011   0.00000   0.00003   0.00216   4.77735
    Z6       25.52536   0.00089   0.00000   0.02256   0.02539  25.55075
    X7      -16.04486  -0.00093   0.00000  -0.00615  -0.00607 -16.05094
    Y7        6.76148  -0.00135   0.00000  -0.00871  -0.00677   6.75471
    Z7       25.30485   0.00053   0.00000   0.00793   0.01143  25.31628
    X8      -14.49680   0.00018   0.00000   0.00760   0.00816 -14.48864
    Y8        9.65905  -0.00004   0.00000  -0.02574  -0.02328   9.63578
    Z8       22.93027  -0.00025   0.00000  -0.01043  -0.00597  22.92430
    X9      -20.28566   0.00006   0.00000   0.00333   0.00324 -20.28241
    Y9        4.96846  -0.00006   0.00000  -0.01662  -0.01221   4.95625
    Z9       19.60472  -0.00012   0.00000   0.01389   0.01672  19.62144
   X10      -20.66166   0.00036   0.00000   0.00693   0.00640 -20.65526
   Y10        2.60287  -0.00071   0.00000  -0.01590  -0.01272   2.59015
   Z10       23.63090  -0.00017   0.00000   0.01388   0.01595  23.64684
   X11      -17.90688  -0.00045   0.00000  -0.01933  -0.01976 -17.92665
   Y11        3.71449   0.00016   0.00000   0.00895   0.01053   3.72503
   Z11       27.29013   0.00023   0.00000   0.02707   0.02956  27.31969
   X12      -14.85631   0.00048   0.00000   0.00423   0.00435 -14.85196
   Y12        7.28520  -0.00054   0.00000  -0.01274  -0.01149   7.27371
   Z12       26.91045   0.00019   0.00000   0.00267   0.00637  26.91681
   X13      -17.28438   0.00766   0.00000   0.03460   0.03513 -17.24925
   Y13        8.91164   0.01047   0.00000  -0.06341  -0.05912   8.85252
   Z13       18.58898  -0.00698   0.00000  -0.03937  -0.03523  18.55375
   X14      -15.95095  -0.00239   0.00000   0.06009   0.06095 -15.89000
   Y14       11.04828  -0.01669   0.00000  -0.11398  -0.10976  10.93852
   Z14       18.18843  -0.00061   0.00000  -0.07508  -0.07024  18.11819
   X15      -18.46916  -0.00116   0.00000  -0.00555  -0.00509 -18.47426
   Y15        8.16888   0.00079   0.00000  -0.04572  -0.04076   8.12812
   Z15       17.06090   0.00049   0.00000  -0.01534  -0.01145  17.04946
   X16      -16.00764   0.00000   0.00000   0.05168   0.05273 -15.95491
   Y16       12.01229   0.00000   0.00000  -0.11825  -0.11344  11.89885
   Z16       16.36879   0.00003   0.00000  -0.07656  -0.07141  16.29737
   X17      -14.66160  -0.00179   0.00000   0.02061   0.02157 -14.64003
   Y17       11.82250   0.00150   0.00000  -0.06006  -0.05648  11.76602
   Z17       19.59656  -0.00070   0.00000  -0.06992  -0.06479  19.53178
   X18       -1.84212  -0.00306   0.00000  -0.01738  -0.01864  -1.86075
   Y18       -3.44486   0.00061   0.00000   0.00373   0.00708  -3.43778
   Z18       14.08614   0.00082   0.00000   0.00873   0.00927  14.09541
   X19      -15.82454   0.00300   0.00000   0.01101   0.00989 -15.81464
   Y19       -2.49841  -0.00083   0.00000   0.00911   0.01460  -2.48381
   Z19       14.09883   0.00084   0.00000   0.01119   0.01173  14.11056
   X20      -13.24139   0.00243   0.00000   0.01001   0.00954 -13.23184
   Y20        2.51778  -0.00271   0.00000  -0.00829  -0.00502   2.51276
   Z20       19.82069  -0.00061   0.00000  -0.00393  -0.00173  19.81897
   X21       -4.39906  -0.00222   0.00000  -0.00934  -0.01147  -4.41053
   Y21       -8.31087   0.00199   0.00000   0.01405   0.01593  -8.29494
   Z21       19.94652  -0.00087   0.00000  -0.01039  -0.01146  19.93506
   X22       -6.38007   0.00152   0.00000  -0.00853  -0.00901  -6.38909
   Y22        1.34839   0.00963   0.00000   0.01545   0.02008   1.36846
   Z22       12.29474  -0.00939   0.00000  -0.00750  -0.00552  12.28922
   X23      -11.32946  -0.00234   0.00000   0.00358   0.00177 -11.32769
   Y23       -7.26652  -0.00938   0.00000  -0.00006   0.00528  -7.26123
   Z23       12.42184  -0.00953   0.00000  -0.00443  -0.00531  12.41653
   X24       -6.76928   0.00613   0.00000   0.01314   0.01251  -6.75677
   Y24        1.66356   0.00777   0.00000   0.00050   0.00222   1.66578
   Z24       21.53463   0.00957   0.00000   0.01089   0.01296  21.54759
   X25      -10.90380  -0.00659   0.00000  -0.01422  -0.01624 -10.92004
   Y25       -7.35582  -0.00682   0.00000   0.00483   0.00715  -7.34867
   Z25       21.67253   0.00964   0.00000   0.00423   0.00332  21.67585
   X26       -4.62346   0.00786   0.00000  -0.00361  -0.00504  -4.62851
   Y26       -4.88856  -0.00727   0.00000  -0.00619  -0.00176  -4.89031
   Z26       12.04844  -0.01002   0.00000  -0.00530  -0.00529  12.04315
   X27      -13.04527  -0.00804   0.00000  -0.00453  -0.00537 -13.05064
   Y27       -1.03190   0.00787   0.00000   0.02276   0.02850  -1.00340
   Z27       11.99629  -0.00986   0.00000  -0.00371  -0.00263  11.99366
   X28      -12.81707  -0.01116   0.00000  -0.00920  -0.01017 -12.82724
   Y28       -0.50495   0.00303   0.00000  -0.00284  -0.00030  -0.50526
   Z28       21.90230   0.01010   0.00000   0.00797   0.00921  21.91152
   X29       -4.83036   0.01059   0.00000   0.00891   0.00722  -4.82314
   Y29       -5.18562  -0.00188   0.00000   0.00799   0.00928  -5.17635
   Z29       21.96411   0.01007   0.00000   0.00556   0.00547  21.96958
   X30       -5.92026  -0.00069   0.00000   0.00607   0.00598  -5.91429
   Y30        3.60937  -0.00318   0.00000   0.00133   0.00659   3.61596
   Z30       10.09282   0.00268   0.00000  -0.00765  -0.00494  10.08788
   X31      -11.59823   0.00026   0.00000  -0.00974  -0.01186 -11.61009
   Y31       -9.62746   0.00317   0.00000   0.00769   0.01377  -9.61369
   Z31       10.26299   0.00311   0.00000   0.00024  -0.00140  10.26159
   X32       -5.01964  -0.00218   0.00000   0.00139   0.00096  -5.01868
   Y32        3.25317  -0.00208   0.00000   0.00450   0.00526   3.25843
   Z32       23.70839  -0.00299   0.00000   0.00648   0.00910  23.71749
   X33      -12.62610   0.00228   0.00000  -0.00246  -0.00476 -12.63086
   Y33       -8.89313   0.00205   0.00000  -0.00100   0.00087  -8.89226
   Z33       23.90067  -0.00326   0.00000  -0.00196  -0.00340  23.89727
   X34       -5.02717  -0.00088   0.00000  -0.01084  -0.01176  -5.03893
   Y34       -1.71705  -0.00076   0.00000   0.00012   0.00509  -1.71196
   Z34       10.55822   0.00314   0.00000   0.01179   0.01281  10.57103
   X35      -12.64218   0.00131   0.00000   0.00676   0.00544 -12.63674
   Y35       -4.30926   0.00026   0.00000   0.01440   0.02051  -4.28875
   Z35       10.62282   0.00325   0.00000   0.01382   0.01386  10.63667
   X36       -9.96648   0.00045   0.00000   0.00354   0.00277  -9.96371
   Y36        1.01909  -0.00127   0.00000  -0.01002  -0.00839   1.01070
   Z36       23.35949  -0.00301   0.00000  -0.00594  -0.00415  23.35534
   X37       -7.66324  -0.00018   0.00000  -0.00326  -0.00521  -7.66845
   Y37       -6.70196   0.00105   0.00000   0.01134   0.01259  -6.68937
   Z37       23.44891  -0.00319   0.00000  -0.01175  -0.01237  23.43654
   X38        0.64939  -0.00429   0.00000   0.00154   0.00072   0.65011
   Y38       -0.13703  -0.00156   0.00000  -0.00085   0.00102  -0.13601
   Z38       17.51537  -0.00120   0.00000  -0.00225  -0.00061  17.51476
   X39      -18.32233   0.00435   0.00000  -0.00634  -0.00801 -18.33035
   Y39       -5.68796   0.00171   0.00000   0.01290   0.01765  -5.67031
   Z39       17.60699  -0.00112   0.00000  -0.00049  -0.00101  17.60598
   X40      -12.04324   0.00224   0.00000   0.00962   0.00984 -12.03341
   Y40        6.44896  -0.00556   0.00000   0.00932   0.01350   6.46245
   Z40       16.39666   0.00087   0.00000   0.00958   0.01307  16.40974
   X41       -5.63439  -0.00106   0.00000   0.00117  -0.00149  -5.63588
   Y41      -12.27356   0.00448   0.00000   0.00477   0.00792 -12.26564
   Z41       16.52840   0.00107   0.00000  -0.00023  -0.00260  16.52580
   X42       -3.32062  -0.00201   0.00000  -0.01548  -0.01599  -3.33662
   Y42        1.38288  -0.00255   0.00000  -0.00158   0.00198   1.38487
   Z42       14.14099   0.00131   0.00000   0.01026   0.01231  14.15330
   X43      -14.35965   0.00222   0.00000   0.00947   0.00761 -14.35204
   Y43       -7.33478   0.00244   0.00000   0.01516   0.02037  -7.31441
   Z43       14.26685   0.00097   0.00000   0.00904   0.00807  14.27492
   X44       -8.46385  -0.00044   0.00000   0.00508   0.00487  -8.45898
   Y44        4.14489  -0.00347   0.00000  -0.01306  -0.01049   4.13440
   Z44       19.69630  -0.00059   0.00000  -0.00002   0.00280  19.69910
   X45       -9.19378   0.00091   0.00000  -0.00568  -0.00805  -9.20183
   Y45       -9.90586   0.00307   0.00000   0.01811   0.02075  -9.88512
   Z45       19.87849  -0.00123   0.00000  -0.01068  -0.01236  19.86613
   X46       -3.06162  -0.00242   0.00000  -0.00202  -0.00368  -3.06529
   Y46       -6.65250   0.00245   0.00000   0.00615   0.01105  -6.64146
   Z46        9.86504   0.00311   0.00000  -0.00214  -0.00266   9.86239
   X47      -14.69869   0.00262   0.00000  -0.00937  -0.00993 -14.70862
   Y47        0.48821  -0.00195   0.00000   0.01070   0.01742   0.50562
   Z47        9.73102   0.00335   0.00000   0.00388   0.00541   9.73643
   X48      -15.10991   0.00375   0.00000  -0.00069  -0.00168 -15.11159
   Y48       -0.31001  -0.00088   0.00000   0.00407   0.00624  -0.30377
   Z48       24.13837  -0.00356   0.00000   0.00332   0.00458  24.14295
   X49       -2.50823  -0.00334   0.00000   0.00134  -0.00043  -2.50866
   Y49       -5.42484   0.00036   0.00000  -0.00427  -0.00404  -5.42888
   Z49       24.16878  -0.00336   0.00000   0.00027   0.00016  24.16894
   X50       -2.30714   0.01338   0.00000   0.00393   0.00298  -2.30416
   Y50       -1.09374   0.00469   0.00000   0.00702   0.00961  -1.08414
   Z50       16.70292   0.00271   0.00000   0.01149   0.01277  16.71569
   X51      -15.36626  -0.01407   0.00000  -0.00949  -0.01100 -15.37726
   Y51       -4.75158  -0.00383   0.00000   0.00551   0.01007  -4.74151
   Z51       16.76997   0.00319   0.00000   0.01251   0.01235  16.78232
   X52      -11.12629  -0.00512   0.00000   0.00100   0.00074 -11.12554
   Y52        3.48167   0.01496   0.00000   0.01465   0.01847   3.50013
   Z52       17.10128  -0.00303   0.00000  -0.00601  -0.00345  17.09783
   X53       -6.55716   0.00443   0.00000  -0.00186  -0.00408  -6.56125
   Y53       -9.29804  -0.01369   0.00000  -0.00213   0.00092  -9.29711
   Z53       17.30822  -0.00263   0.00000  -0.01190  -0.01334  17.29488
   X54       -7.97278  -0.00055   0.00000  -0.00116  -0.00274  -7.97552
   Y54       -5.90364   0.00153   0.00000  -0.00227   0.00287  -5.90077
   Z54       11.46227   0.00217   0.00000  -0.00563  -0.00601  11.45627
   X55       -9.69254   0.00068   0.00000  -0.00573  -0.00641  -9.69896
   Y55       -0.10167  -0.00169   0.00000   0.01741   0.02284  -0.07883
   Z55       11.37145   0.00202   0.00000  -0.00547  -0.00402  11.36742
   X56      -11.64869   0.00188   0.00000  -0.00954  -0.01103 -11.65972
   Y56       -3.81769  -0.00005   0.00000  -0.00056   0.00159  -3.81610
   Z56       22.53417  -0.00241   0.00000   0.00563   0.00584  22.54002
   X57       -5.96367  -0.00154   0.00000   0.01000   0.00881  -5.95486
   Y57       -1.87742  -0.00059   0.00000   0.00422   0.00550  -1.87192
   Z57       22.52051  -0.00187   0.00000   0.01021   0.01116  22.53167
   X58       -8.20273   0.00016   0.00000  -0.00369  -0.00397  -8.20670
   Y58        2.98863  -0.00242   0.00000   0.01412   0.01821   3.00684
   Z58       14.83127   0.00106   0.00000  -0.00684  -0.00438  14.82690
   X59       -9.45580   0.00045   0.00000   0.00145  -0.00066  -9.45646
   Y59       -8.88818   0.00246   0.00000  -0.00067   0.00357  -8.88462
   Z59       14.96764   0.00157   0.00000  -0.00626  -0.00763  14.96001
   X60       -4.32816  -0.00170   0.00000   0.00936   0.00869  -4.31947
   Y60        1.04807  -0.00181   0.00000   0.00327   0.00542   1.05349
   Z60       19.03714  -0.00151   0.00000   0.01003   0.01195  19.04910
   X61      -13.32674   0.00175   0.00000  -0.01250  -0.01439 -13.34113
   Y61       -6.84488   0.00145   0.00000   0.00515   0.00864  -6.83624
   Z61       19.14899  -0.00160   0.00000   0.00575   0.00496  19.15395
   X62       -4.85832  -0.00099   0.00000  -0.00143  -0.00331  -4.86162
   Y62       -7.39973   0.00204   0.00000  -0.00214   0.00144  -7.39829
   Z62       14.84287   0.00091   0.00000  -0.00795  -0.00875  14.83412
   X63      -12.84410   0.00102   0.00000  -0.00191  -0.00242 -12.84653
   Y63        1.48522  -0.00243   0.00000   0.01640   0.02123   1.50645
   Z63       14.74031   0.00056   0.00000  -0.00453  -0.00264  14.73767
   X64      -14.75919   0.00224   0.00000  -0.00847  -0.00965 -14.76884
   Y64       -2.22970  -0.00004   0.00000   0.00339   0.00709  -2.22261
   Z64       19.19388  -0.00116   0.00000   0.00921   0.00987  19.20375
   X65       -2.90637  -0.00261   0.00000   0.00471   0.00333  -2.90304
   Y65       -3.57083  -0.00037   0.00000   0.00546   0.00734  -3.56349
   Z65       19.17848  -0.00092   0.00000   0.00740   0.00788  19.18636
   X66       -6.32082  -0.02552   0.00000  -0.04814  -0.04923  -6.37005
   Y66       -2.20435  -0.00472   0.00000  -0.00130   0.00240  -2.20195
   Z66       15.14483   0.01618   0.00000   0.02734   0.02818  15.17301
   X67      -11.34646   0.02572   0.00000   0.04181   0.04049 -11.30598
   Y67       -3.71990   0.00548   0.00000   0.01695   0.02139  -3.69851
   Z67       15.18413   0.01615   0.00000   0.02867   0.02892  15.21305
   X68       -9.63423   0.01066   0.00000   0.01966   0.01877  -9.61546
   Y68       -0.41177  -0.02454   0.00000  -0.03689  -0.03384  -0.44561
   Z68       18.79274  -0.01631   0.00000  -0.02471  -0.02338  18.76936
   X69       -8.00125  -0.01045   0.00000  -0.02147  -0.02312  -8.02438
   Y69       -5.39596   0.02340   0.00000   0.04424   0.04702  -5.34894
   Z69       18.85089  -0.01650   0.00000  -0.02692  -0.02713  18.82376
   X70       -6.09079   0.00026   0.00000  -0.00122  -0.00366  -6.09445
   Y70      -11.61533  -0.00083   0.00000  -0.00244   0.00266 -11.61267
   Z70       10.67430  -0.00062   0.00000  -0.00800  -0.01017  10.66413
   X71       -0.24209   0.00134   0.00000   0.01161   0.01069  -0.23140
   Y71       -0.02667   0.00033   0.00000   0.00307   0.00323  -0.02343
   Z71       23.27512   0.00110   0.00000   0.01010   0.01176  23.28688
   X72      -17.56117  -0.00092   0.00000  -0.01175  -0.01349 -17.57466
   Y72       -5.32820  -0.00031   0.00000   0.00306   0.00583  -5.32237
   Z72       23.43639   0.00060   0.00000   0.00736   0.00696  23.44335
   X73       -8.82967  -0.00036   0.00000  -0.00248  -0.00371  -8.83338
   Y73       -2.92545   0.00025   0.00000   0.00581   0.00930  -2.91615
   Z73       16.98847   0.00035   0.00000   0.00165   0.00221  16.99067
         Item               Value     Threshold  Converged?
 Maximum Force            0.025725     0.000450     NO 
 RMS     Force            0.005839     0.000300     NO 
 Maximum Displacement     0.113437     0.001800     NO 
 RMS     Displacement     0.020143     0.001200     NO 
 Predicted change in Energy=-5.588396D-03
 GradGradGradGradGradGradGradGradGradGradGradGradGradGradGradGradGradGrad

 Unable to Open any file for archive entry.
 1\1\GINC-X11P1N2\Force\RwB97XD\def2SVP\C8H8Cl1K3O40V1W12(1-)\MAYUMIAO\
 03-Jun-2024\0\\# def2svp wb97xd scrf=(smd,solvent=acetonitrile) g09def
 ault scf=(xqc,maxcycle=64) force guess=read nosymm\\Title Card\\-1,1\C
 l,-9.6821684,8.27556671,10.53670524\C,-8.38588123,4.28811674,12.199510
 94\C,-9.19090616,3.96238146,11.09142559\C,-10.09841471,2.89487129,11.2
 2349051\C,-10.20940265,2.1910612,12.41890679\C,-9.40292002,2.5269217,1
 3.50744123\C,-8.49057502,3.57801976,13.39075079\H,-7.67137746,5.111351
 75,12.13417653\H,-10.73470806,2.62919465,10.37437214\H,-10.93367901,1.
 37737947,12.50493178\H,-9.47591467,1.96562592,14.441314\H,-7.86161806,
 3.85516246,14.24039557\C,-9.14650023,4.715838,9.83686462\C,-8.44087891
 ,5.84649713,9.62490107\H,-9.77345916,4.32278282,9.02824146\H,-8.470878
 26,6.35662909,8.66198953\H,-7.7585853,6.25619993,10.37005396\O,-0.9748
 0579,-1.82294306,7.45406598\O,-8.37398485,-1.32210363,7.46077806\O,-7.
 00703963,1.33235407,10.48865817\O,-2.32788276,-4.39792389,10.55524416\
 W,-3.37618962,0.71353467,6.50609505\W,-5.99529306,-3.84527422,6.573355
 55\W,-3.58214975,0.88031989,11.39563758\W,-5.77004228,-3.89253021,11.4
 6860784\W,-2.44663138,-2.58691221,6.37575839\W,-6.90325746,-0.54605743
 ,6.34816216\W,-6.78250275,-0.26721046,11.59019905\W,-2.55611477,-2.744
 1145,11.62290396\O,-3.13286863,1.90999757,5.34088955\O,-6.13751841,-5.
 09463419,5.43094112\O,-2.65627971,1.72150463,12.5459399\O,-6.68144431,
 -4.70604108,12.6476875\O,-2.66026153,-0.90862351,5.587169\O,-6.6899524
 3,-2.2803625,5.62135192\O,-5.27403546,0.53928109,12.36130789\O,-4.0552
 1381,-3.54652594,12.40862804\O,0.34364316,-0.07251508,9.268734\O,-9.69
 576207,-3.0099377,9.31721884\O,-6.37301022,3.41264025,8.67674063\O,-2.
 98158978,-6.49488716,8.74645344\O,-1.75719798,0.73179089,7.48309082\O,
 -7.59879944,-3.88140082,7.54969239\O,-4.47887695,2.19338042,10.4228323
 1\O,-4.86513703,-5.24195676,10.51924258\O,-1.62013765,-3.52035382,5.22
 035637\O,-7.7782113,0.25834805,5.14943436\O,-7.99582048,-0.16404891,12
 .77347533\O,-1.32729775,-2.87070099,12.78956686\W,-1.22088362,-0.57878
 45,8.83880425\W,-8.13147557,-2.51442782,8.87428469\W,-5.88777662,1.842
 41913,9.04960884\W,-3.46990221,-4.92030953,9.15911452\O,-4.21901243,-3
 .124073,6.06557422\O,-5.1290731,-0.05380121,6.01751078\O,-6.16422261,-
 2.0202346,11.92457158\O,-3.15583642,-0.99348835,11.91733964\O,-4.34069
 76,1.58151518,7.84837136\O,-5.00379269,-4.70342441,7.92053434\O,-2.290
 3655,0.55461376,10.07402211\O,-7.05220926,-3.62215378,10.13321036\O,-2
 .57091015,-3.91576769,7.85450865\O,-6.79680592,0.78594388,7.80023604\O
 ,-7.81022946,-1.17990625,10.15696473\O,-1.53798366,-1.8896032,10.14881
 636\O,-3.34483217,-1.16649021,8.01430053\O,-6.00428982,-1.96848559,8.0
 3509714\O,-5.09821548,-0.21790185,9.94469025\O,-4.23408156,-2.85541906
 ,9.97545895\K,-3.22310972,-6.14656627,5.64859669\K,-0.12810833,-0.0141
 1293,12.31666084\K,-9.29297139,-2.81956125,12.4020017\V,-4.67245983,-1
 .54808305,8.98990889\\Version=ES64L-G16RevC.01\HF=-7327.7022124\RMSD=2
 .658e-09\RMSF=5.839e-03\Dipole=9.9832383,-21.988478,2.3520264\Quadrupo
 le=-68.2736655,46.3349348,21.9387307,332.995491,334.3445832,-355.89901
 85\PG=C01 [X(C8H8Cl1K3O40V1W12)]\\@
 The archive entry for this job was punched.


 NOTHING MAKES A PERSON MORE PRODUCTIVE THAN THE LAST MINUTE.
 Job cpu time:       0 days  9 hours 29 minutes  5.0 seconds.
 Elapsed time:       0 days  0 hours 10 minutes 47.7 seconds.
 File lengths (MBytes):  RWF=   1257 Int=      0 D2E=      0 Chk=    249 Scr=      1
 Normal termination of Gaussian 16 at Mon Jun  3 05:08:14 2024.
