 Entering Gaussian System, Link 0=g16
 Input=JOBS/71_A.gjf
 Output=JOBS/71_A.log
 Initial command:
 /data/app/gaussian/C01-avx2//g16/l1.exe "/tmp/Gau-717208.inp" -scrdir="/tmp/"
 Entering Link 1 = /data/app/gaussian/C01-avx2//g16/l1.exe PID=    717209.
  
 Copyright (c) 1988-2019, Gaussian, Inc.  All Rights Reserved.
  
 This is part of the Gaussian(R) 16 program.  It is based on
 the Gaussian(R) 09 system (copyright 2009, Gaussian, Inc.),
 the Gaussian(R) 03 system (copyright 2003, Gaussian, Inc.),
 the Gaussian(R) 98 system (copyright 1998, Gaussian, Inc.),
 the Gaussian(R) 94 system (copyright 1995, Gaussian, Inc.),
 the Gaussian 92(TM) system (copyright 1992, Gaussian, Inc.),
 the Gaussian 90(TM) system (copyright 1990, Gaussian, Inc.),
 the Gaussian 88(TM) system (copyright 1988, Gaussian, Inc.),
 the Gaussian 86(TM) system (copyright 1986, Carnegie Mellon
 University), and the Gaussian 82(TM) system (copyright 1983,
 Carnegie Mellon University). Gaussian is a federally registered
 trademark of Gaussian, Inc.
  
 This software contains proprietary and confidential information,
 including trade secrets, belonging to Gaussian, Inc.
  
 This software is provided under written license and may be
 used, copied, transmitted, or stored only in accord with that
 written license.
  
 The following legend is applicable only to US Government
 contracts under FAR:
  
                    RESTRICTED RIGHTS LEGEND
  
 Use, reproduction and disclosure by the US Government is
 subject to restrictions as set forth in subparagraphs (a)
 and (c) of the Commercial Computer Software - Restricted
 Rights clause in FAR 52.227-19.
  
 Gaussian, Inc.
 340 Quinnipiac St., Bldg. 40, Wallingford CT 06492
  
  
 ---------------------------------------------------------------
 Warning -- This program may not be used in any manner that
 competes with the business of Gaussian, Inc. or will provide
 assistance to any competitor of Gaussian, Inc.  The licensee
 of this program is prohibited from giving any competitor of
 Gaussian, Inc. access to this program.  By using this program,
 the user acknowledges that Gaussian, Inc. is engaged in the
 business of creating and licensing software in the field of
 computational chemistry and represents and warrants to the
 licensee that it is not a competitor of Gaussian, Inc. and that
 it will not use this program in any manner prohibited above.
 ---------------------------------------------------------------
  

 Cite this work as:
 Gaussian 16, Revision C.01,
 M. J. Frisch, G. W. Trucks, H. B. Schlegel, G. E. Scuseria, 
 M. A. Robb, J. R. Cheeseman, G. Scalmani, V. Barone, 
 G. A. Petersson, H. Nakatsuji, X. Li, M. Caricato, A. V. Marenich, 
 J. Bloino, B. G. Janesko, R. Gomperts, B. Mennucci, H. P. Hratchian, 
 J. V. Ortiz, A. F. Izmaylov, J. L. Sonnenberg, D. Williams-Young, 
 F. Ding, F. Lipparini, F. Egidi, J. Goings, B. Peng, A. Petrone, 
 T. Henderson, D. Ranasinghe, V. G. Zakrzewski, J. Gao, N. Rega, 
 G. Zheng, W. Liang, M. Hada, M. Ehara, K. Toyota, R. Fukuda, 
 J. Hasegawa, M. Ishida, T. Nakajima, Y. Honda, O. Kitao, H. Nakai, 
 T. Vreven, K. Throssell, J. A. Montgomery, Jr., J. E. Peralta, 
 F. Ogliaro, M. J. Bearpark, J. J. Heyd, E. N. Brothers, K. N. Kudin, 
 V. N. Staroverov, T. A. Keith, R. Kobayashi, J. Normand, 
 K. Raghavachari, A. P. Rendell, J. C. Burant, S. S. Iyengar, 
 J. Tomasi, M. Cossi, J. M. Millam, M. Klene, C. Adamo, R. Cammi, 
 J. W. Ochterski, R. L. Martin, K. Morokuma, O. Farkas, 
 J. B. Foresman, and D. J. Fox, Gaussian, Inc., Wallingford CT, 2019.
 
 ******************************************
 Gaussian 16:  ES64L-G16RevC.01  3-Jul-2019
                 3-Jun-2024 
 ******************************************
 %chk=a.chk
 %nprocshared=56
 Will use up to   56 processors via shared memory.
 %mem=96gb
 ----------------------------------------------------------------------
 # def2svp wb97xd scrf=(smd,solvent=acetonitrile) g09default scf=(xqc,m
 axcycle=64) force guess=read nosymm
 ----------------------------------------------------------------------
 1/10=7,30=1,38=1,158=3,167=1/1,3;
 2/12=2,15=1,17=6,18=5,40=1/2;
 3/5=43,7=101,11=2,25=1,27=10,30=1,70=32201,71=1,72=2,74=-58,75=-4,116=-2,158=3/1,2,3;
 4/5=1,60=-1/1;
 5/5=2,7=64,8=3,13=1,38=6,53=2,87=10/2,8;
 6/7=2,8=2,9=2,10=2,28=1,87=10/1;
 7/29=1,30=1,87=10/1,2,3,16;
 1/10=7,30=1,158=3,167=1/3;
 99//99;
 Using 2006 physical constants.
 ----------
 Title Card
 ----------
 Symbolic Z-matrix:
 Charge = -1 Multiplicity = 1
 17                   -9.69398   8.27849   10.53815 
 6                    -8.39224   4.29364   12.19818 
 6                    -9.20055   3.96927   11.09222 
 6                    -10.10549   2.89954   11.22515 
 6                    -10.20963   2.19192   12.41926 
 6                    -9.39941   2.52638   13.50531 
 6                    -8.49009   3.57996   13.38787 
 1                    -7.68027   5.11892   12.132 
 1                    -10.74469   2.63373   10.37834 
 1                    -10.93118   1.37588   12.50603 
 1                    -9.46677   1.96193   14.43776 
 1                    -7.85771   3.85597   14.23526 
 6                    -9.15803   4.72524   9.83878 
 6                    -8.44221   5.84881   9.62354 
 1                    -9.79359   4.33998   9.03319 
 1                    -8.46972   6.35827   8.66014 
 1                    -7.75167   6.25145   10.36512 
 8                    -0.97426  -1.82564   7.45243 
 8                    -8.37277  -1.32062   7.45999 
 8                    -7.00595   1.33019   10.49098 
 8                    -2.32609  -4.39848   10.55551 
 74                   -3.37315   0.71559   6.50948 
 74                   -5.99673  -3.84775   6.57637 
 74                   -3.57868   0.8813    11.3934 
 74                   -5.77061  -3.89607   11.46561 
 74                   -2.44898  -2.5868    6.37228 
 74                   -6.89932  -0.5471    6.34602 
 74                   -6.77819  -0.26935   11.59398 
 74                   -2.55742  -2.74448   11.62529 
 8                    -3.12812   1.91332   5.3462 
 8                    -6.14064  -5.09746   5.43444 
 8                    -2.65278   1.72363   12.54276 
 8                    -6.68114  -4.71155   12.64382 
 8                    -2.65914  -0.90735   5.58712 
 8                    -6.68845  -2.28153   5.62172 
 8                    -5.2704    0.53815   12.36238 
 8                    -4.05563  -3.54868   12.40831 
 8                     0.34718  -0.08058   9.26741 
 8                    -9.69717  -3.00368   9.31729 
 8                    -6.37722   3.41026   8.67945 
 8                    -2.97599  -6.49459   8.74649 
 8                    -1.75465   0.73051   7.48534 
 8                    -7.59968  -3.88084   7.55122 
 8                    -4.47818   2.19307   10.42283 
 8                    -4.86353  -5.24329   10.51697 
 8                    -1.62356  -3.5201    5.21577 
 8                    -7.77348   0.2571    5.14647 
 8                    -7.99082  -0.16613   12.77788 
 8                    -1.32841  -2.87211   12.79175 
 74                   -1.21826  -0.58451   8.83819 
 74                   -8.13214  -2.51031   8.87463 
 74                   -5.88978   1.84053   9.05102 
 74                   -3.46535  -4.92006   9.15867 
 8                    -4.21985  -3.12459   6.06484 
 8                    -5.12638  -0.05311   6.01755 
 8                    -6.16293  -2.02286   11.92497 
 8                    -3.15385  -0.99383   11.91884 
 8                    -4.33994   1.58157   7.8501 
 8                    -5.00222  -4.70459   7.92031 
 8                    -2.28791   0.55256   10.07379 
 8                    -7.05323  -3.62269   10.13273 
 8                    -2.56964  -3.91609   7.85287 
 8                    -6.79574   0.78466   7.80036 
 8                    -7.80875  -1.1794    10.15838 
 8                    -1.53757  -1.89213   10.14931 
 8                    -3.34394  -1.16744   8.01395 
 8                    -6.00347  -1.96874   8.03558 
 8                    -5.09639  -0.21899   9.94565 
 8                    -4.23284  -2.85619   9.97533 
 19                   -3.22437  -6.14888   5.64851 
 19                   -0.12633  -0.02265   12.3184 
 19                   -9.29546  -2.82025   12.39862 
 23                   -4.67124  -1.54877   8.99001 
 

 GradGradGradGradGradGradGradGradGradGradGradGradGradGradGradGradGradGrad
 Berny optimization.
 Initialization pass.
 Trust Radius=3.00D-01 FncErr=1.00D-07 GrdErr=1.00D-07 EigMax=2.50D+02 EigMin=1.00D-04
 Number of steps in this run=      2 maximum allowed number of steps=      2.
 GradGradGradGradGradGradGradGradGradGradGradGradGradGradGradGradGradGrad

 Symmetry turned off by external request.
 Stoichiometry    C8H8ClK3O40VW12(1-)
 Framework group  C1[X(C8H8ClK3O40VW12)]
 Deg. of freedom   213
 Full point group                 C1      NOp   1
                          Input orientation:                          
 ---------------------------------------------------------------------
 Center     Atomic      Atomic             Coordinates (Angstroms)
 Number     Number       Type             X           Y           Z
 ---------------------------------------------------------------------
      1         17           0       -9.693983    8.278491   10.538148
      2          6           0       -8.392241    4.293641   12.198185
      3          6           0       -9.200552    3.969265   11.092216
      4          6           0      -10.105495    2.899542   11.225149
      5          6           0      -10.209631    2.191919   12.419262
      6          6           0       -9.399406    2.526382   13.505312
      7          6           0       -8.490089    3.579962   13.387868
      8          1           0       -7.680270    5.118924   12.131997
      9          1           0      -10.744692    2.633726   10.378336
     10          1           0      -10.931178    1.375884   12.506030
     11          1           0       -9.466774    1.961932   14.437758
     12          1           0       -7.857713    3.855972   14.235264
     13          6           0       -9.158030    4.725236    9.838781
     14          6           0       -8.442214    5.848811    9.623537
     15          1           0       -9.793591    4.339980    9.033188
     16          1           0       -8.469720    6.358268    8.660138
     17          1           0       -7.751673    6.251451   10.365118
     18          8           0       -0.974263   -1.825637    7.452434
     19          8           0       -8.372767   -1.320615    7.459990
     20          8           0       -7.005954    1.330192   10.490979
     21          8           0       -2.326091   -4.398484   10.555507
     22         74           0       -3.373149    0.715592    6.509479
     23         74           0       -5.996731   -3.847752    6.576374
     24         74           0       -3.578684    0.881297   11.393400
     25         74           0       -5.770608   -3.896066   11.465614
     26         74           0       -2.448976   -2.586802    6.372284
     27         74           0       -6.899322   -0.547103    6.346024
     28         74           0       -6.778191   -0.269349   11.593976
     29         74           0       -2.557424   -2.744478   11.625293
     30          8           0       -3.128117    1.913321    5.346204
     31          8           0       -6.140640   -5.097460    5.434439
     32          8           0       -2.652778    1.723629   12.542762
     33          8           0       -6.681142   -4.711548   12.643822
     34          8           0       -2.659135   -0.907349    5.587123
     35          8           0       -6.688451   -2.281528    5.621723
     36          8           0       -5.270395    0.538149   12.362384
     37          8           0       -4.055625   -3.548677   12.408309
     38          8           0        0.347178   -0.080576    9.267407
     39          8           0       -9.697169   -3.003677    9.317293
     40          8           0       -6.377221    3.410256    8.679452
     41          8           0       -2.975986   -6.494588    8.746489
     42          8           0       -1.754652    0.730509    7.485340
     43          8           0       -7.599682   -3.880842    7.551217
     44          8           0       -4.478176    2.193066   10.422828
     45          8           0       -4.863527   -5.243290   10.516970
     46          8           0       -1.623564   -3.520098    5.215769
     47          8           0       -7.773477    0.257097    5.146469
     48          8           0       -7.990824   -0.166130   12.777883
     49          8           0       -1.328413   -2.872106   12.791753
     50         74           0       -1.218262   -0.584512    8.838194
     51         74           0       -8.132137   -2.510309    8.874629
     52         74           0       -5.889780    1.840534    9.051023
     53         74           0       -3.465351   -4.920058    9.158665
     54          8           0       -4.219850   -3.124592    6.064837
     55          8           0       -5.126381   -0.053106    6.017546
     56          8           0       -6.162933   -2.022864   11.924968
     57          8           0       -3.153850   -0.993825   11.918835
     58          8           0       -4.339937    1.581573    7.850105
     59          8           0       -5.002224   -4.704587    7.920313
     60          8           0       -2.287912    0.552556   10.073786
     61          8           0       -7.053230   -3.622691   10.132730
     62          8           0       -2.569637   -3.916089    7.852867
     63          8           0       -6.795740    0.784660    7.800364
     64          8           0       -7.808745   -1.179403   10.158378
     65          8           0       -1.537567   -1.892132   10.149312
     66          8           0       -3.343938   -1.167437    8.013950
     67          8           0       -6.003470   -1.968736    8.035583
     68          8           0       -5.096387   -0.218993    9.945646
     69          8           0       -4.232836   -2.856186    9.975333
     70         19           0       -3.224369   -6.148883    5.648510
     71         19           0       -0.126328   -0.022647   12.318400
     72         19           0       -9.295465   -2.820250   12.398617
     73         23           0       -4.671243   -1.548773    8.990010
 ---------------------------------------------------------------------
 Rotational constants (GHZ):           0.0171956           0.0131807           0.0129602
 Standard basis: def2SVP (5D, 7F)
  1217 basis functions,  2313 primitive gaussians,  1337 cartesian basis functions
   321 alpha electrons      321 beta electrons
       nuclear repulsion energy     20958.2686555476 Hartrees.
 NAtoms=   73 NActive=   73 NUniq=   73 SFac= 1.00D+00 NAtFMM=   60 NAOKFM=T Big=T
 Integral buffers will be    131072 words long.
 Raffenetti 2 integral format.
 Two-electron integral symmetry is turned off.
 Nuclear repulsion after empirical dispersion term =    20957.9926207370 Hartrees.
 Force PCM accuracy= 1.00D-10.
 ------------------------------------------------------------------------------
 Polarizable Continuum Model (PCM)
 =================================
 Model                : PCM (using non-symmetric T matrix).
 Atomic radii         : SMD-Coulomb.
 Polarization charges : Total charges.
 Charge compensation  : None.
 Solution method      : On-the-fly selection.
 Cavity type          : VdW (van der Waals Surface) (Alpha=1.000).
 Cavity algorithm     : GePol (No added spheres)
                        Default sphere list used, NSphG=   73.
                        Lebedev-Laikov grids with approx.  5.0 points / Ang**2.
                        Smoothing algorithm: York/Karplus (Gamma=1.0000).
                        Polarization charges: spherical gaussians, with
                                              point-specific exponents (IZeta= 3).
                        Self-potential: point-specific (ISelfS= 7).
                        Self-field    : sphere-specific E.n sum rule (ISelfD= 2).
 1st derivatives      : Analytical E(r).r(x)/FMM algorithm (CHGder, D1EAlg=3).
                        Cavity 1st derivative terms included.
 Solvent              : Acetonitrile, Eps=  35.688000 Eps(inf)=   1.806874
 ------------------------------------------------------------------------------
 ------------------------------------------------------------------------------
 Atomic radii for non-electrostatic terms: SMD-CDS.
 ------------------------------------------------------------------------------
 Nuclear repulsion after PCM non-electrostatic terms =    20957.9868489913 Hartrees.
 One-electron integrals computed using PRISM.
   1 Symmetry operations used in ECPInt.
 ECPInt:  NShTT=  127765 NPrTT=  468030 LenC2=   96425 LenP2D=  220619.
 LDataN:  DoStor=T MaxTD1= 8 Len=  415
 NBasis=  1217 RedAO= T EigKep=  1.38D-04  NBF=  1217
 NBsUse=  1217 1.00D-06 EigRej= -1.00D+00 NBFU=  1217
 Defaulting to unpruned grid for atomic number  74.
 Defaulting to unpruned grid for atomic number  74.
 Defaulting to unpruned grid for atomic number  74.
 Defaulting to unpruned grid for atomic number  74.
 Defaulting to unpruned grid for atomic number  74.
 Defaulting to unpruned grid for atomic number  74.
 Defaulting to unpruned grid for atomic number  74.
 Defaulting to unpruned grid for atomic number  74.
 Initial guess from the checkpoint file:  "a.chk"
 B after Tr=     0.000714    0.000194    0.000295
         Rot=    1.000000   -0.000039   -0.000003    0.000028 Ang=  -0.01 deg.
 Requested convergence on RMS density matrix=1.00D-08 within  64 cycles.
 Requested convergence on MAX density matrix=1.00D-06.
 Requested convergence on             energy=1.00D-06.
 No special actions if energy rises.
 Defaulting to unpruned grid for atomic number  74.
 Defaulting to unpruned grid for atomic number  74.
 Defaulting to unpruned grid for atomic number  74.
 Defaulting to unpruned grid for atomic number  74.
 Defaulting to unpruned grid for atomic number  74.
 Defaulting to unpruned grid for atomic number  74.
 Defaulting to unpruned grid for atomic number  74.
 Defaulting to unpruned grid for atomic number  74.
 Defaulting to unpruned grid for atomic number  74.
 Defaulting to unpruned grid for atomic number  74.
 Defaulting to unpruned grid for atomic number  74.
 Defaulting to unpruned grid for atomic number  74.
 Defaulting to unpruned grid for atomic number  74.
 Defaulting to unpruned grid for atomic number  74.
 Defaulting to unpruned grid for atomic number  74.
 Defaulting to unpruned grid for atomic number  74.
 Defaulting to unpruned grid for atomic number  74.
 Defaulting to unpruned grid for atomic number  74.
 Defaulting to unpruned grid for atomic number  74.
 Defaulting to unpruned grid for atomic number  74.
 Defaulting to unpruned grid for atomic number  74.
 Defaulting to unpruned grid for atomic number  74.
 Defaulting to unpruned grid for atomic number  74.
 Defaulting to unpruned grid for atomic number  74.
 Defaulting to unpruned grid for atomic number  74.
 Defaulting to unpruned grid for atomic number  74.
 Defaulting to unpruned grid for atomic number  74.
 Defaulting to unpruned grid for atomic number  74.
 Defaulting to unpruned grid for atomic number  74.
 Defaulting to unpruned grid for atomic number  74.
 Defaulting to unpruned grid for atomic number  74.
 Defaulting to unpruned grid for atomic number  74.
 Defaulting to unpruned grid for atomic number  74.
 Defaulting to unpruned grid for atomic number  74.
 Defaulting to unpruned grid for atomic number  74.
 Defaulting to unpruned grid for atomic number  74.
 Defaulting to unpruned grid for atomic number  74.
 Defaulting to unpruned grid for atomic number  74.
 Defaulting to unpruned grid for atomic number  74.
 Defaulting to unpruned grid for atomic number  74.
 Defaulting to unpruned grid for atomic number  74.
 Defaulting to unpruned grid for atomic number  74.
 Defaulting to unpruned grid for atomic number  74.
 Defaulting to unpruned grid for atomic number  74.
 Defaulting to unpruned grid for atomic number  74.
 Defaulting to unpruned grid for atomic number  74.
 Defaulting to unpruned grid for atomic number  74.
 Defaulting to unpruned grid for atomic number  74.
 Defaulting to unpruned grid for atomic number  74.
 Defaulting to unpruned grid for atomic number  74.
 Defaulting to unpruned grid for atomic number  74.
 Defaulting to unpruned grid for atomic number  74.
 Defaulting to unpruned grid for atomic number  74.
 Defaulting to unpruned grid for atomic number  74.
 Defaulting to unpruned grid for atomic number  74.
 Defaulting to unpruned grid for atomic number  74.
 Inv3:  Mode=1 IEnd=    87350448.
 Iteration    1 A*A^-1 deviation from unit magnitude is 3.44D-15 for   4680.
 Iteration    1 A*A^-1 deviation from orthogonality  is 3.33D-15 for   3544   2013.
 Iteration    1 A^-1*A deviation from unit magnitude is 3.77D-15 for   1979.
 Iteration    1 A^-1*A deviation from orthogonality  is 1.32D-11 for   3276   3254.
 Error on total polarization charges =  0.01622
 SCF Done:  E(RwB97XD) =  -7327.70226073     A.U. after   10 cycles
            NFock= 10  Conv=0.99D-08     -V/T= 2.0832
 SMD-CDS (non-electrostatic) energy       (kcal/mol) =      -3.62
 (included in total energy above)
 QCSCF skips out because SCF is already converged.

 **********************************************************************

            Population analysis using the SCF Density.

 **********************************************************************

 Alpha  occ. eigenvalues -- -197.29324-130.00122-130.00038-130.00009-101.48328
 Alpha  occ. eigenvalues --  -22.62462 -19.33617 -19.33609 -19.33607 -19.33580
 Alpha  occ. eigenvalues --  -19.30731 -19.30693 -19.30690 -19.30688 -19.30667
 Alpha  occ. eigenvalues --  -19.30663 -19.30657 -19.30640 -19.30588 -19.30372
 Alpha  occ. eigenvalues --  -19.30344 -19.30175 -19.29373 -19.29357 -19.29352
 Alpha  occ. eigenvalues --  -19.29337 -19.29333 -19.29315 -19.29305 -19.29281
 Alpha  occ. eigenvalues --  -19.29239 -19.29223 -19.29210 -19.29202 -19.29189
 Alpha  occ. eigenvalues --  -19.29160 -19.29126 -19.29124 -19.29117 -19.29116
 Alpha  occ. eigenvalues --  -19.29106 -19.29090 -19.29042 -19.29001 -19.28983
 Alpha  occ. eigenvalues --  -19.28898 -19.11417 -19.11409 -19.11400 -13.37524
 Alpha  occ. eigenvalues --  -13.37431 -13.37406 -10.70454 -10.70447 -10.70446
 Alpha  occ. eigenvalues --  -10.70362 -10.70355 -10.70350 -10.70336 -10.70329
 Alpha  occ. eigenvalues --  -10.70328 -10.29868 -10.29317 -10.29300 -10.29041
 Alpha  occ. eigenvalues --  -10.28982 -10.28912 -10.28194 -10.27459  -9.38800
 Alpha  occ. eigenvalues --   -7.13630  -7.13574  -7.13570  -3.23303  -3.23294
 Alpha  occ. eigenvalues --   -3.23287  -3.23284  -3.23271  -3.23239  -3.23237
 Alpha  occ. eigenvalues --   -3.23233  -3.23218  -3.22953  -3.22938  -3.22761
 Alpha  occ. eigenvalues --   -2.91744  -1.94133  -1.94104  -1.94094  -1.87710
 Alpha  occ. eigenvalues --   -1.87658  -1.87649  -1.87613  -1.87484  -1.87464
 Alpha  occ. eigenvalues --   -1.87459  -1.87445  -1.87421  -1.87267  -1.87237
 Alpha  occ. eigenvalues --   -1.87090  -1.86626  -1.86506  -1.86497  -1.86481
 Alpha  occ. eigenvalues --   -1.86450  -1.86427  -1.86342  -1.86314  -1.86304
 Alpha  occ. eigenvalues --   -1.86293  -1.86272  -1.86259  -1.86142  -1.86128
 Alpha  occ. eigenvalues --   -1.86115  -1.86102  -1.86034  -1.86017  -1.85986
 Alpha  occ. eigenvalues --   -1.85913  -1.85891  -1.85794  -1.85713  -1.85657
 Alpha  occ. eigenvalues --   -1.51213  -1.51124  -1.51104  -1.13021  -1.11246
 Alpha  occ. eigenvalues --   -1.11161  -1.11160  -1.08969  -1.08533  -1.08501
 Alpha  occ. eigenvalues --   -1.08314  -1.07558  -1.07488  -1.07484  -1.06901
 Alpha  occ. eigenvalues --   -1.06889  -1.06870  -1.06298  -1.06274  -1.05358
 Alpha  occ. eigenvalues --   -1.05351  -1.04979  -1.04973  -1.04956  -1.04233
 Alpha  occ. eigenvalues --   -1.04226  -1.04191  -1.04047  -1.04014  -1.03998
 Alpha  occ. eigenvalues --   -1.03941  -1.03924  -1.03895  -1.03765  -1.03754
 Alpha  occ. eigenvalues --   -1.03619  -1.03572  -1.03311  -1.03272  -1.03158
 Alpha  occ. eigenvalues --   -1.03142  -1.03077  -1.02993  -0.94364  -0.86679
 Alpha  occ. eigenvalues --   -0.86598  -0.86583  -0.86512  -0.86489  -0.86487
 Alpha  occ. eigenvalues --   -0.86414  -0.86388  -0.86379  -0.86378  -0.82805
 Alpha  occ. eigenvalues --   -0.79726  -0.71561  -0.69656  -0.67998  -0.64588
 Alpha  occ. eigenvalues --   -0.63959  -0.63894  -0.63873  -0.63277  -0.63259
 Alpha  occ. eigenvalues --   -0.63149  -0.62950  -0.62661  -0.62599  -0.61942
 Alpha  occ. eigenvalues --   -0.61600  -0.61579  -0.61484  -0.61234  -0.61214
 Alpha  occ. eigenvalues --   -0.61172  -0.60419  -0.59467  -0.59442  -0.59427
 Alpha  occ. eigenvalues --   -0.59382  -0.59351  -0.58662  -0.58008  -0.57973
 Alpha  occ. eigenvalues --   -0.57893  -0.57054  -0.57031  -0.56998  -0.56271
 Alpha  occ. eigenvalues --   -0.56248  -0.56100  -0.55710  -0.54872  -0.54809
 Alpha  occ. eigenvalues --   -0.54768  -0.54521  -0.54237  -0.54116  -0.54102
 Alpha  occ. eigenvalues --   -0.54034  -0.53962  -0.53269  -0.53231  -0.53095
 Alpha  occ. eigenvalues --   -0.53053  -0.52913  -0.52742  -0.52710  -0.52656
 Alpha  occ. eigenvalues --   -0.52625  -0.52515  -0.52461  -0.52405  -0.51625
 Alpha  occ. eigenvalues --   -0.51608  -0.51379  -0.51342  -0.51316  -0.51260
 Alpha  occ. eigenvalues --   -0.51191  -0.51170  -0.50975  -0.50802  -0.50625
 Alpha  occ. eigenvalues --   -0.50600  -0.50599  -0.49954  -0.49935  -0.49298
 Alpha  occ. eigenvalues --   -0.49266  -0.49235  -0.49218  -0.49164  -0.49090
 Alpha  occ. eigenvalues --   -0.48906  -0.48084  -0.48037  -0.47923  -0.47633
 Alpha  occ. eigenvalues --   -0.47399  -0.47295  -0.47251  -0.47038  -0.46976
 Alpha  occ. eigenvalues --   -0.46913  -0.46623  -0.46620  -0.46473  -0.46215
 Alpha  occ. eigenvalues --   -0.46163  -0.46122  -0.45658  -0.45111  -0.44935
 Alpha  occ. eigenvalues --   -0.44901  -0.44203  -0.44159  -0.44042  -0.43532
 Alpha  occ. eigenvalues --   -0.43323  -0.43281  -0.43145  -0.43137  -0.43100
 Alpha  occ. eigenvalues --   -0.42771  -0.42747  -0.42710  -0.42624  -0.42608
 Alpha  occ. eigenvalues --   -0.42538  -0.42501  -0.42488  -0.42315  -0.42306
 Alpha  occ. eigenvalues --   -0.42280  -0.42058  -0.41923  -0.41883  -0.41870
 Alpha  occ. eigenvalues --   -0.41261  -0.41239  -0.41180  -0.41104  -0.40596
 Alpha  occ. eigenvalues --   -0.40583  -0.40573  -0.40349  -0.39458  -0.39446
 Alpha  occ. eigenvalues --   -0.37060  -0.32564  -0.29224  -0.25104  -0.25075
 Alpha  occ. eigenvalues --   -0.23454
 Alpha virt. eigenvalues --   -0.09369  -0.09167  -0.08329  -0.08284  -0.06889
 Alpha virt. eigenvalues --   -0.06864  -0.06777  -0.04382  -0.04102  -0.04049
 Alpha virt. eigenvalues --   -0.03729  -0.03503  -0.03443  -0.03225  -0.03075
 Alpha virt. eigenvalues --   -0.03032  -0.03011  -0.02238  -0.02191  -0.02165
 Alpha virt. eigenvalues --   -0.01480  -0.01452  -0.01397  -0.01301  -0.01222
 Alpha virt. eigenvalues --   -0.00046  -0.00025   0.00023   0.01400   0.01422
 Alpha virt. eigenvalues --    0.01874   0.01917   0.02003   0.02134   0.02183
 Alpha virt. eigenvalues --    0.02203   0.02261   0.02326   0.02779   0.02850
 Alpha virt. eigenvalues --    0.02928   0.02996   0.03031   0.04418   0.04540
 Alpha virt. eigenvalues --    0.06743   0.07229   0.07436   0.07481   0.07710
 Alpha virt. eigenvalues --    0.08005   0.08492   0.08510   0.08765   0.09137
 Alpha virt. eigenvalues --    0.09308   0.09368   0.09644   0.09847   0.10177
 Alpha virt. eigenvalues --    0.10246   0.10287   0.10316   0.10374   0.10626
 Alpha virt. eigenvalues --    0.10886   0.11038   0.11062   0.11618   0.11714
 Alpha virt. eigenvalues --    0.12199   0.13116   0.13215   0.13325   0.13607
 Alpha virt. eigenvalues --    0.13752   0.14447   0.14550   0.14655   0.14981
 Alpha virt. eigenvalues --    0.15493   0.16119   0.16326   0.16526   0.16691
 Alpha virt. eigenvalues --    0.16711   0.16905   0.17050   0.17218   0.17648
 Alpha virt. eigenvalues --    0.17888   0.18126   0.18190   0.18376   0.18547
 Alpha virt. eigenvalues --    0.18718   0.18913   0.19186   0.19313   0.19500
 Alpha virt. eigenvalues --    0.19549   0.20094   0.20249   0.20369   0.20580
 Alpha virt. eigenvalues --    0.20680   0.20843   0.20935   0.21255   0.21353
 Alpha virt. eigenvalues --    0.21405   0.21503   0.21613   0.21880   0.22038
 Alpha virt. eigenvalues --    0.22449   0.22706   0.22864   0.23163   0.23203
 Alpha virt. eigenvalues --    0.23411   0.23753   0.23933   0.24231   0.24554
 Alpha virt. eigenvalues --    0.24785   0.25209   0.25452   0.25622   0.25914
 Alpha virt. eigenvalues --    0.26020   0.26154   0.26434   0.26497   0.26751
 Alpha virt. eigenvalues --    0.26943   0.27241   0.27348   0.27416   0.27656
 Alpha virt. eigenvalues --    0.27996   0.28224   0.28293   0.28485   0.28689
 Alpha virt. eigenvalues --    0.29002   0.29597   0.29894   0.30458   0.30473
 Alpha virt. eigenvalues --    0.30704   0.30926   0.31211   0.31462   0.31780
 Alpha virt. eigenvalues --    0.32217   0.34754   0.35152   0.35813   0.36282
 Alpha virt. eigenvalues --    0.36586   0.36876   0.37189   0.38080   0.38394
 Alpha virt. eigenvalues --    0.38602   0.39118   0.39446   0.39582   0.40220
 Alpha virt. eigenvalues --    0.40657   0.40840   0.40904   0.41108   0.41657
 Alpha virt. eigenvalues --    0.42055   0.42255   0.42637   0.43255   0.43439
 Alpha virt. eigenvalues --    0.43675   0.44390   0.44664   0.44763   0.45120
 Alpha virt. eigenvalues --    0.45666   0.46248   0.46465   0.46657   0.47153
 Alpha virt. eigenvalues --    0.47360   0.47613   0.47840   0.47986   0.48160
 Alpha virt. eigenvalues --    0.48335   0.48431   0.48528   0.48648   0.48890
 Alpha virt. eigenvalues --    0.49126   0.49317   0.49406   0.49755   0.49850
 Alpha virt. eigenvalues --    0.50175   0.50257   0.50501   0.50877   0.51083
 Alpha virt. eigenvalues --    0.51616   0.51758   0.51918   0.52297   0.52435
 Alpha virt. eigenvalues --    0.52633   0.52863   0.53010   0.53126   0.53278
 Alpha virt. eigenvalues --    0.53538   0.53931   0.54163   0.54284   0.54433
 Alpha virt. eigenvalues --    0.55006   0.55447   0.55624   0.56342   0.56456
 Alpha virt. eigenvalues --    0.56781   0.57350   0.57561   0.58056   0.58289
 Alpha virt. eigenvalues --    0.58568   0.59076   0.59430   0.60235   0.60782
 Alpha virt. eigenvalues --    0.61458   0.62157   0.62636   0.62733   0.63140
 Alpha virt. eigenvalues --    0.64181   0.65273   0.65675   0.65751   0.65876
 Alpha virt. eigenvalues --    0.66136   0.66435   0.66946   0.67341   0.67416
 Alpha virt. eigenvalues --    0.67845   0.68187   0.69514   0.70168   0.71154
 Alpha virt. eigenvalues --    0.71408   0.71969   0.72157   0.72310   0.72315
 Alpha virt. eigenvalues --    0.72580   0.72742   0.73179   0.73292   0.73958
 Alpha virt. eigenvalues --    0.74585   0.74781   0.75410   0.75656   0.75792
 Alpha virt. eigenvalues --    0.76169   0.76674   0.76924   0.77180   0.77395
 Alpha virt. eigenvalues --    0.78146   0.78575   0.79043   0.79427   0.79550
 Alpha virt. eigenvalues --    0.79986   0.80276   0.80450   0.80716   0.81299
 Alpha virt. eigenvalues --    0.81522   0.81632   0.81992   0.82440   0.83140
 Alpha virt. eigenvalues --    0.83805   0.84183   0.84617   0.85475   0.86094
 Alpha virt. eigenvalues --    0.86987   0.87295   0.87926   0.88021   0.88583
 Alpha virt. eigenvalues --    0.88823   0.89037   0.89425   0.89495   0.90221
 Alpha virt. eigenvalues --    0.90487   0.90740   0.91184   0.91243   0.91610
 Alpha virt. eigenvalues --    0.92484   0.92888   0.93344   0.93869   0.94116
 Alpha virt. eigenvalues --    0.94279   0.94876   0.95619   0.95920   0.96535
 Alpha virt. eigenvalues --    0.96886   0.97073   0.97225   0.97786   0.97909
 Alpha virt. eigenvalues --    0.98165   0.98268   0.98454   0.98598   0.98745
 Alpha virt. eigenvalues --    0.98911   0.99423   1.00005   1.00042   1.00204
 Alpha virt. eigenvalues --    1.00808   1.01213   1.01471   1.01509   1.01648
 Alpha virt. eigenvalues --    1.01989   1.02143   1.02326   1.02487   1.02663
 Alpha virt. eigenvalues --    1.02883   1.03408   1.03481   1.03632   1.04028
 Alpha virt. eigenvalues --    1.04242   1.04313   1.04446   1.04717   1.04860
 Alpha virt. eigenvalues --    1.05040   1.05221   1.05238   1.05416   1.05814
 Alpha virt. eigenvalues --    1.05925   1.06356   1.06861   1.07039   1.07150
 Alpha virt. eigenvalues --    1.07499   1.07937   1.08689   1.08872   1.09162
 Alpha virt. eigenvalues --    1.09283   1.09739   1.09938   1.10028   1.10204
 Alpha virt. eigenvalues --    1.10718   1.10856   1.10893   1.10970   1.11213
 Alpha virt. eigenvalues --    1.11435   1.11621   1.11726   1.11962   1.12370
 Alpha virt. eigenvalues --    1.12689   1.13408   1.13676   1.14085   1.14784
 Alpha virt. eigenvalues --    1.15241   1.15745   1.16180   1.16254   1.16653
 Alpha virt. eigenvalues --    1.17152   1.17568   1.17929   1.18551   1.18954
 Alpha virt. eigenvalues --    1.20020   1.20498   1.20901   1.21085   1.21176
 Alpha virt. eigenvalues --    1.21346   1.21741   1.22015   1.22816   1.23546
 Alpha virt. eigenvalues --    1.24943   1.25782   1.26050   1.26380   1.26645
 Alpha virt. eigenvalues --    1.27135   1.27869   1.28289   1.28589   1.28622
 Alpha virt. eigenvalues --    1.28794   1.28889   1.29082   1.29256   1.29989
 Alpha virt. eigenvalues --    1.30120   1.30324   1.30531   1.30646   1.30713
 Alpha virt. eigenvalues --    1.30984   1.31965   1.32219   1.32777   1.32977
 Alpha virt. eigenvalues --    1.33151   1.33430   1.33646   1.33831   1.34045
 Alpha virt. eigenvalues --    1.34199   1.34397   1.34477   1.34519   1.34697
 Alpha virt. eigenvalues --    1.34996   1.35073   1.35619   1.35818   1.36031
 Alpha virt. eigenvalues --    1.36176   1.36362   1.36626   1.36756   1.36783
 Alpha virt. eigenvalues --    1.37030   1.37292   1.37625   1.37640   1.37771
 Alpha virt. eigenvalues --    1.37979   1.38318   1.38568   1.38800   1.38930
 Alpha virt. eigenvalues --    1.39270   1.39587   1.39694   1.39785   1.39967
 Alpha virt. eigenvalues --    1.40352   1.40447   1.40559   1.40733   1.40920
 Alpha virt. eigenvalues --    1.41107   1.41148   1.41418   1.41849   1.41972
 Alpha virt. eigenvalues --    1.42402   1.42679   1.43110   1.43196   1.43319
 Alpha virt. eigenvalues --    1.43603   1.43924   1.44316   1.44386   1.45527
 Alpha virt. eigenvalues --    1.46095   1.46416   1.47574   1.47581   1.47755
 Alpha virt. eigenvalues --    1.48190   1.48324   1.49240   1.49766   1.49960
 Alpha virt. eigenvalues --    1.50329   1.50871   1.51327   1.51757   1.52977
 Alpha virt. eigenvalues --    1.53350   1.55420   1.55715   1.55769   1.55827
 Alpha virt. eigenvalues --    1.56007   1.56251   1.56577   1.56611   1.57171
 Alpha virt. eigenvalues --    1.57246   1.57840   1.58407   1.58918   1.59089
 Alpha virt. eigenvalues --    1.59505   1.59995   1.60179   1.60417   1.60503
 Alpha virt. eigenvalues --    1.60591   1.61099   1.61983   1.62157   1.62693
 Alpha virt. eigenvalues --    1.63912   1.64259   1.64933   1.65470   1.66972
 Alpha virt. eigenvalues --    1.67675   1.68036   1.69621   1.70575   1.70853
 Alpha virt. eigenvalues --    1.71310   1.71650   1.72411   1.73460   1.73991
 Alpha virt. eigenvalues --    1.74968   1.75139   1.75263   1.75677   1.76423
 Alpha virt. eigenvalues --    1.76516   1.76671   1.77198   1.77447   1.78462
 Alpha virt. eigenvalues --    1.78571   1.78850   1.79017   1.80177   1.80363
 Alpha virt. eigenvalues --    1.81258   1.81368   1.81976   1.82233   1.82891
 Alpha virt. eigenvalues --    1.82917   1.83307   1.83742   1.83929   1.84431
 Alpha virt. eigenvalues --    1.85113   1.85376   1.85581   1.85936   1.86199
 Alpha virt. eigenvalues --    1.86521   1.87045   1.87378   1.88086   1.88451
 Alpha virt. eigenvalues --    1.89271   1.89890   1.90199   1.90227   1.90481
 Alpha virt. eigenvalues --    1.90826   1.91204   1.91411   1.92337   1.93381
 Alpha virt. eigenvalues --    1.94802   1.95159   1.95293   1.95459   1.95941
 Alpha virt. eigenvalues --    1.98132   1.99113   1.99352   1.99435   2.04407
 Alpha virt. eigenvalues --    2.06286   2.06699   2.08114   2.08252   2.08573
 Alpha virt. eigenvalues --    2.08711   2.09115   2.09515   2.10087   2.10724
 Alpha virt. eigenvalues --    2.11335   2.11874   2.12454   2.14756   2.15529
 Alpha virt. eigenvalues --    2.15936   2.16683   2.17157   2.17345   2.17737
 Alpha virt. eigenvalues --    2.20046   2.20425   2.20500   2.20800   2.20947
 Alpha virt. eigenvalues --    2.21127   2.22084   2.23864   2.25205   2.25608
 Alpha virt. eigenvalues --    2.26140   2.26386   2.26969   2.28080   2.28497
 Alpha virt. eigenvalues --    2.28784   2.29373   2.29816   2.33459   2.35508
 Alpha virt. eigenvalues --    2.36593   2.39121   2.40811   2.40978   2.43493
 Alpha virt. eigenvalues --    2.44189   2.50628   2.51791   2.57274   2.64832
 Alpha virt. eigenvalues --    2.64885   2.65046   2.65800   2.66075   2.66538
 Alpha virt. eigenvalues --    2.66763   2.66815   2.66901   2.67004   2.67020
 Alpha virt. eigenvalues --    2.67097   2.67176   2.67302   2.67341   2.67370
 Alpha virt. eigenvalues --    2.67646   2.67674   2.67848   2.67875   2.67932
 Alpha virt. eigenvalues --    2.68759   2.68929   2.69196   2.69326   2.70016
 Alpha virt. eigenvalues --    2.70110   2.70196   2.70399   2.70522   2.70660
 Alpha virt. eigenvalues --    2.70710   2.71324   2.71453   2.71491   2.71546
 Alpha virt. eigenvalues --    2.71651   2.71856   2.72477   2.72699   2.72887
 Alpha virt. eigenvalues --    2.72981   2.73078   2.73174   2.73274   2.73308
 Alpha virt. eigenvalues --    2.73401   2.73665   2.73802   2.73851   2.73997
 Alpha virt. eigenvalues --    2.74069   2.74181   2.74347   2.74558   2.74697
 Alpha virt. eigenvalues --    2.74767   2.74911   2.75090   2.75596   2.76034
 Alpha virt. eigenvalues --    2.76147   2.76238   2.76398   2.76708   2.76898
 Alpha virt. eigenvalues --    2.76991   2.77059   2.77097   2.78298   2.78425
 Alpha virt. eigenvalues --    2.78619   2.78763   2.79880   2.80148   2.80257
 Alpha virt. eigenvalues --    2.81028   2.81582   2.81630   2.81874   2.82121
 Alpha virt. eigenvalues --    2.82180   2.82713   2.83022   2.83274   2.83680
 Alpha virt. eigenvalues --    2.83780   2.83918   2.84028   2.84195   2.84989
 Alpha virt. eigenvalues --    2.85509   2.86056   2.86121   2.86427   2.86509
 Alpha virt. eigenvalues --    2.86615   2.86713   2.86829   2.87786   2.88256
 Alpha virt. eigenvalues --    2.88515   2.88743   2.89518   2.89564   2.89666
 Alpha virt. eigenvalues --    2.89840   2.89857   2.90001   2.90305   2.90379
 Alpha virt. eigenvalues --    2.90454   2.91605   2.91771   2.91849   2.91969
 Alpha virt. eigenvalues --    2.92242   2.92432   2.92683   2.92978   2.93105
 Alpha virt. eigenvalues --    2.93251   2.93478   2.93664   2.93899   2.94119
 Alpha virt. eigenvalues --    2.94168   2.95058   2.95267   2.95445   2.95715
 Alpha virt. eigenvalues --    2.95822   2.95903   2.96376   2.96564   2.96680
 Alpha virt. eigenvalues --    2.96730   2.96879   2.96933   2.97133   2.97430
 Alpha virt. eigenvalues --    2.97549   2.97691   2.97892   2.98305   2.99063
 Alpha virt. eigenvalues --    2.99273   2.99580   2.99742   2.99843   3.00067
 Alpha virt. eigenvalues --    3.00309   3.00515   3.01174   3.01359   3.01628
 Alpha virt. eigenvalues --    3.02778   3.03276   3.03408   3.03779   3.04720
 Alpha virt. eigenvalues --    3.06140   3.06336   3.06754   3.11037   3.11233
 Alpha virt. eigenvalues --    3.11325   3.11410   3.12049   3.12416   3.13585
 Alpha virt. eigenvalues --    3.13689   3.13828   3.16819   3.19974   3.21666
 Alpha virt. eigenvalues --    3.21847   3.23846   3.32516   3.40507   3.40973
 Alpha virt. eigenvalues --    3.41495   3.42355   3.44116   3.44231   3.45216
 Alpha virt. eigenvalues --    3.45580   3.45720   3.46721   3.46826   3.47304
 Alpha virt. eigenvalues --    3.48488   3.50763   3.51446   3.51793   3.53129
 Alpha virt. eigenvalues --    3.53330   3.53914   3.54343   3.54759   3.54896
 Alpha virt. eigenvalues --    3.55014   3.55051   3.55228   3.56006   3.57231
 Alpha virt. eigenvalues --    3.57377   3.57877   3.59145   3.59381   3.59943
 Alpha virt. eigenvalues --    3.60431   3.60984   3.61356   3.61663   3.62162
 Alpha virt. eigenvalues --    3.69697   3.74793  68.64662  68.65653  68.66776
 Alpha virt. eigenvalues --   68.68951  68.72726  68.73892  68.81602  68.82554
 Alpha virt. eigenvalues --   68.83072  68.85862  68.87011  68.88085 576.23087
 Alpha virt. eigenvalues --  576.24054 576.25156 576.27280 576.31067 576.32220
 Alpha virt. eigenvalues --  576.39782 576.40710 576.41214 576.43908 576.45028
 Alpha virt. eigenvalues --  576.46096
          Condensed to atoms (all electrons):
 Mulliken charges:
               1
     1  Cl  -0.896208
     2  C   -0.082408
     3  C    0.048080
     4  C   -0.081559
     5  C   -0.034549
     6  C   -0.033019
     7  C   -0.048660
     8  H    0.028803
     9  H    0.029306
    10  H    0.041171
    11  H    0.037228
    12  H    0.039391
    13  C   -0.128060
    14  C    0.035243
    15  H    0.019401
    16  H    0.035395
    17  H    0.028181
    18  O   -0.661487
    19  O   -0.659762
    20  O   -0.654740
    21  O   -0.662100
    22  W    1.729369
    23  W    1.670063
    24  W    1.681177
    25  W    1.692221
    26  W    1.672724
    27  W    1.724681
    28  W    1.613987
    29  W    1.681814
    30  O   -0.320144
    31  O   -0.365673
    32  O   -0.366354
    33  O   -0.357746
    34  O   -0.661561
    35  O   -0.669494
    36  O   -0.659427
    37  O   -0.661694
    38  O   -0.366700
    39  O   -0.366070
    40  O   -0.298580
    41  O   -0.364841
    42  O   -0.668822
    43  O   -0.662107
    44  O   -0.657641
    45  O   -0.665038
    46  O   -0.367029
    47  O   -0.320463
    48  O   -0.359887
    49  O   -0.363868
    50  W    1.668832
    51  W    1.674420
    52  W    1.682195
    53  W    1.681176
    54  O   -0.723102
    55  O   -0.705310
    56  O   -0.723913
    57  O   -0.721590
    58  O   -0.703206
    59  O   -0.724360
    60  O   -0.723288
    61  O   -0.718314
    62  O   -0.723040
    63  O   -0.705022
    64  O   -0.724288
    65  O   -0.724773
    66  O   -0.800714
    67  O   -0.799996
    68  O   -0.797431
    69  O   -0.807754
    70  K    0.865296
    71  K    0.862273
    72  K    0.862145
    73  V    1.187217
 Sum of Mulliken charges =  -1.00000
 Mulliken charges with hydrogens summed into heavy atoms:
               1
     1  Cl  -0.896208
     2  C   -0.053605
     3  C    0.048080
     4  C   -0.052254
     5  C    0.006622
     6  C    0.004209
     7  C   -0.009270
    13  C   -0.108659
    14  C    0.098819
    18  O   -0.661487
    19  O   -0.659762
    20  O   -0.654740
    21  O   -0.662100
    22  W    1.729369
    23  W    1.670063
    24  W    1.681177
    25  W    1.692221
    26  W    1.672724
    27  W    1.724681
    28  W    1.613987
    29  W    1.681814
    30  O   -0.320144
    31  O   -0.365673
    32  O   -0.366354
    33  O   -0.357746
    34  O   -0.661561
    35  O   -0.669494
    36  O   -0.659427
    37  O   -0.661694
    38  O   -0.366700
    39  O   -0.366070
    40  O   -0.298580
    41  O   -0.364841
    42  O   -0.668822
    43  O   -0.662107
    44  O   -0.657641
    45  O   -0.665038
    46  O   -0.367029
    47  O   -0.320463
    48  O   -0.359887
    49  O   -0.363868
    50  W    1.668832
    51  W    1.674420
    52  W    1.682195
    53  W    1.681176
    54  O   -0.723102
    55  O   -0.705310
    56  O   -0.723913
    57  O   -0.721590
    58  O   -0.703206
    59  O   -0.724360
    60  O   -0.723288
    61  O   -0.718314
    62  O   -0.723040
    63  O   -0.705022
    64  O   -0.724288
    65  O   -0.724773
    66  O   -0.800714
    67  O   -0.799996
    68  O   -0.797431
    69  O   -0.807754
    70  K    0.865296
    71  K    0.862273
    72  K    0.862145
    73  V    1.187217
 Electronic spatial extent (au):  <R**2>=         317378.1108
 Charge=             -1.0000 electrons
 Dipole moment (field-independent basis, Debye):
    X=             50.1874    Y=            -51.4004    Z=            -39.0017  Tot=             81.7430
 Quadrupole moment (field-independent basis, Debye-Ang):
   XX=          -1043.0962   YY=           -888.3899   ZZ=           -921.1478
   XY=            448.8546   XZ=            450.3707   YZ=           -479.5351
 Traceless Quadrupole moment (field-independent basis, Debye-Ang):
   XX=            -92.2183   YY=             62.4881   ZZ=             29.7302
   XY=            448.8546   XZ=            450.3707   YZ=           -479.5351
 Octapole moment (field-independent basis, Debye-Ang**2):
  XXX=          13226.1160  YYY=          -1081.5132  ZZZ=         -19259.0939  XYY=           6052.5991
  XXY=          -3565.3703  XXZ=          -9311.1919  XZZ=           7266.4338  YZZ=          -4186.4153
  YYZ=          -9045.7312  XYZ=           4740.8726
 Hexadecapole moment (field-independent basis, Debye-Ang**3):
 XXXX=        -156208.7878 YYYY=         -54290.5550 ZZZZ=        -348160.3130 XXXY=          35851.8830
 XXXZ=         120766.4359 YYYX=          20884.9414 YYYZ=         -12896.9212 ZZZX=         126974.6779
 ZZZY=         -35707.4101 XXYY=         -55395.5194 XXZZ=        -106754.2796 YYZZ=         -99960.9563
 XXYZ=         -41363.6234 YYXZ=          61382.8588 ZZXY=          49776.7454
 N-N= 2.095798684899D+04 E-N=-5.900022452163D+04  KE= 6.765170787513D+03
   1 Symmetry operations used in ECPInt.
 ECPInt:  NShTT=  127765 NPrTT=  468030 LenC2=   96425 LenP2D=  220619.
 LDataN:  DoStor=T MaxTD1= 9 Len=  602
 D1PCM: PCM CHGder 1st derivatives, ID1Alg=3 FixD1E=F DoIter=F DoCFld=F I1PDM=0.
 Calling FoFJK, ICntrl=      2127 FMM=T ISym2X=0 I1Cent= 0 IOpClX= 0 NMat=1 NMatS=1 NMatT=0.
 Defaulting to unpruned grid for atomic number  74.
 Defaulting to unpruned grid for atomic number  74.
 Defaulting to unpruned grid for atomic number  74.
 Defaulting to unpruned grid for atomic number  74.
 Defaulting to unpruned grid for atomic number  74.
 Defaulting to unpruned grid for atomic number  74.
 Defaulting to unpruned grid for atomic number  74.
 Defaulting to unpruned grid for atomic number  74.
 Defaulting to unpruned grid for atomic number  74.
 Defaulting to unpruned grid for atomic number  74.
 Defaulting to unpruned grid for atomic number  74.
 Defaulting to unpruned grid for atomic number  74.
 Defaulting to unpruned grid for atomic number  74.
 Defaulting to unpruned grid for atomic number  74.
 Defaulting to unpruned grid for atomic number  74.
 Defaulting to unpruned grid for atomic number  74.
 Defaulting to unpruned grid for atomic number  74.
 Defaulting to unpruned grid for atomic number  74.
 Defaulting to unpruned grid for atomic number  74.
 Defaulting to unpruned grid for atomic number  74.
 Defaulting to unpruned grid for atomic number  74.
 Defaulting to unpruned grid for atomic number  74.
 Defaulting to unpruned grid for atomic number  74.
 Defaulting to unpruned grid for atomic number  74.
 Defaulting to unpruned grid for atomic number  74.
 Defaulting to unpruned grid for atomic number  74.
 Defaulting to unpruned grid for atomic number  74.
 Defaulting to unpruned grid for atomic number  74.
 Defaulting to unpruned grid for atomic number  74.
 Defaulting to unpruned grid for atomic number  74.
 Defaulting to unpruned grid for atomic number  74.
 Defaulting to unpruned grid for atomic number  74.
 Defaulting to unpruned grid for atomic number  74.
 Defaulting to unpruned grid for atomic number  74.
 Defaulting to unpruned grid for atomic number  74.
 Defaulting to unpruned grid for atomic number  74.
 Defaulting to unpruned grid for atomic number  74.
 Defaulting to unpruned grid for atomic number  74.
 Defaulting to unpruned grid for atomic number  74.
 Defaulting to unpruned grid for atomic number  74.
 Defaulting to unpruned grid for atomic number  74.
 Defaulting to unpruned grid for atomic number  74.
 Defaulting to unpruned grid for atomic number  74.
 Defaulting to unpruned grid for atomic number  74.
 Defaulting to unpruned grid for atomic number  74.
 Defaulting to unpruned grid for atomic number  74.
 Defaulting to unpruned grid for atomic number  74.
 Defaulting to unpruned grid for atomic number  74.
 Defaulting to unpruned grid for atomic number  74.
 Defaulting to unpruned grid for atomic number  74.
 Defaulting to unpruned grid for atomic number  74.
 Defaulting to unpruned grid for atomic number  74.
 Defaulting to unpruned grid for atomic number  74.
 Defaulting to unpruned grid for atomic number  74.
 Defaulting to unpruned grid for atomic number  74.
 Defaulting to unpruned grid for atomic number  74.
 -------------------------------------------------------------------
 Center     Atomic                   Forces (Hartrees/Bohr)
 Number     Number              X              Y              Z
 -------------------------------------------------------------------
      1       17          -0.002630516    0.007897975    0.002432122
      2        6          -0.001377666   -0.000643846   -0.001378053
      3        6          -0.000889979   -0.001630246    0.003461829
      4        6           0.001499800    0.001905179    0.000576097
      5        6           0.000864763   -0.000063047    0.001169175
      6        6          -0.000359738   -0.000155927    0.000957496
      7        6          -0.000896159   -0.001303252    0.000440954
      8        1           0.000207879   -0.000017862   -0.000192477
      9        1           0.000059503    0.000008967   -0.000201074
     10        1           0.000330762   -0.000684962   -0.000203553
     11        1          -0.000466461    0.000174254    0.000198020
     12        1           0.000468673   -0.000521368    0.000231044
     13        6           0.007704445    0.010216641   -0.006942336
     14        6          -0.002593104   -0.016499282   -0.000625462
     15        1          -0.001104096    0.000673877    0.000484760
     16        1          -0.000209390    0.000066987    0.000095938
     17        1          -0.001772857    0.001499408   -0.000632295
     18        8          -0.003058752    0.000638986    0.000834597
     19        8           0.002993854   -0.000861096    0.000870155
     20        8           0.002454884   -0.002684708   -0.000644625
     21        8          -0.002239696    0.001958916   -0.000866031
     22       74           0.001461454    0.009431306   -0.009205641
     23       74          -0.002334497   -0.009424554   -0.009614098
     24       74           0.006103383    0.007729775    0.009580747
     25       74          -0.006534422   -0.006760042    0.009591584
     26       74           0.007965699   -0.007339849   -0.010105271
     27       74          -0.008087807    0.007933140   -0.009903242
     28       74          -0.011114846    0.003013458    0.010017438
     29       74           0.010595387   -0.001891247    0.010046234
     30        8          -0.000715846   -0.003061554    0.002478160
     31        8           0.000329368    0.003271211    0.003125915
     32        8          -0.002182783   -0.002133623   -0.002937521
     33        8           0.002226358    0.002083839   -0.003181529
     34        8          -0.000915695   -0.000780697    0.003119233
     35        8           0.001281211    0.000274112    0.003257360
     36        8           0.000414640   -0.001264110   -0.003021222
     37        8          -0.000158957    0.001048884   -0.003187057
     38        8          -0.004324472   -0.001485780   -0.001171993
     39        8           0.004308427    0.001606817   -0.001091836
     40        8           0.002267631   -0.005383115    0.000806060
     41        8          -0.001163337    0.004602865    0.001061584
     42        8          -0.002026231   -0.002561372    0.001249884
     43        8           0.002215270    0.002424470    0.000947263
     44        8          -0.000408347   -0.003487637   -0.000586317
     45        8           0.000880736    0.003066989   -0.001200982
     46        8          -0.002451211    0.002546775    0.003234834
     47        8           0.002628325   -0.001965522    0.003428958
     48        8           0.003691406   -0.000863761   -0.003547105
     49        8          -0.003354580    0.000348632   -0.003352013
     50       74           0.013361546    0.004726024    0.002735201
     51       74          -0.013942163   -0.003816300    0.003149359
     52       74          -0.005024342    0.014745756   -0.002976385
     53       74           0.004429381   -0.013836736   -0.002682748
     54        8          -0.000549345    0.001529023    0.002174716
     55        8           0.000685173   -0.001690821    0.002026304
     56        8           0.001894900   -0.000040425   -0.002403648
     57        8          -0.001535860   -0.000603382   -0.001889030
     58        8           0.000164115   -0.002415627    0.001049334
     59        8           0.000405568    0.002482572    0.001591422
     60        8          -0.001669761   -0.001806742   -0.001493379
     61        8           0.001780240    0.001458790   -0.001597799
     62        8          -0.001009265    0.002044781    0.000923071
     63        8           0.001039667   -0.002405823    0.000566481
     64        8           0.002232924   -0.000056961   -0.001148038
     65        8          -0.002587768   -0.000368162   -0.000904742
     66        8          -0.025445865   -0.004707339    0.016186845
     67        8           0.025662785    0.005428350    0.016117780
     68        8           0.010633667   -0.024492696   -0.016329540
     69        8          -0.010432342    0.023305516   -0.016463414
     70       19           0.000257380   -0.000805594   -0.000606250
     71       19           0.001327174    0.000388368    0.001084608
     72       19          -0.000882446   -0.000290601    0.000597667
     73       23          -0.000377774    0.000273024    0.000386478
 -------------------------------------------------------------------
 Cartesian Forces:  Max     0.025662785 RMS     0.005820598

 GradGradGradGradGradGradGradGradGradGradGradGradGradGradGradGradGradGrad
 Berny optimization.
 Search for a local minimum.
 Step number   1 out of a maximum of    2
 All quantities printed in internal units (Hartrees-Bohrs-Radians)
 Second derivative matrix not updated -- first step.
 ITU=  0
     Eigenvalues ---    0.00000   0.00000   0.00000   0.00010   0.00093
     Eigenvalues ---    0.00095   0.00254   0.00555   0.00624   0.01644
     Eigenvalues ---    0.01949   0.02899   0.02925   0.03190   0.03405
     Eigenvalues ---    0.03428   0.03711   0.03717   0.04157   0.04487
     Eigenvalues ---    0.04585   0.04589   0.04599   0.04821   0.04835
     Eigenvalues ---    0.04992   0.05330   0.05535   0.05551   0.06345
     Eigenvalues ---    0.06382   0.06534   0.06784   0.06862   0.07048
     Eigenvalues ---    0.07308   0.07344   0.07615   0.08314   0.08360
     Eigenvalues ---    0.08691   0.08702   0.08883   0.08908   0.09745
     Eigenvalues ---    0.09861   0.10043   0.10375   0.10419   0.10512
     Eigenvalues ---    0.10755   0.10879   0.11488   0.11536   0.11989
     Eigenvalues ---    0.12024   0.12088   0.12501   0.12543   0.12585
     Eigenvalues ---    0.12641   0.12726   0.12835   0.13003   0.13043
     Eigenvalues ---    0.13803   0.13912   0.14216   0.14385   0.14700
     Eigenvalues ---    0.16707   0.16739   0.16924   0.17163   0.17572
     Eigenvalues ---    0.17660   0.18523   0.19717   0.19857   0.20152
     Eigenvalues ---    0.20742   0.21073   0.21734   0.21786   0.22024
     Eigenvalues ---    0.22395   0.23058   0.23310   0.23794   0.23809
     Eigenvalues ---    0.24524   0.24618   0.24806   0.25599   0.25739
     Eigenvalues ---    0.26113   0.26233   0.27495   0.27578   0.27764
     Eigenvalues ---    0.28288   0.28398   0.28814   0.29523   0.29966
     Eigenvalues ---    0.30526   0.30611   0.30732   0.30758   0.30871
     Eigenvalues ---    0.30959   0.31173   0.31318   0.31574   0.32385
     Eigenvalues ---    0.32534   0.32568   0.32692   0.32903   0.33515
     Eigenvalues ---    0.33594   0.34965   0.35436   0.35708   0.36710
     Eigenvalues ---    0.37403   0.37524   0.37612   0.38035   0.38399
     Eigenvalues ---    0.38682   0.39208   0.40152   0.40198   0.41267
     Eigenvalues ---    0.42204   0.42267   0.43568   0.43755   0.44784
     Eigenvalues ---    0.45356   0.45591   0.45774   0.47186   0.48095
     Eigenvalues ---    0.48330   0.48783   0.48793   0.49526   0.49827
     Eigenvalues ---    0.49855   0.50605   0.51381   0.51427   0.51943
     Eigenvalues ---    0.52930   0.53433   0.54779   0.58902   0.64361
     Eigenvalues ---    0.67543   0.76599   0.81483   0.82725   0.96907
     Eigenvalues ---    0.97275   0.98751   0.99216   1.02174   1.04450
     Eigenvalues ---    1.07153   1.11540   1.12024   1.12309   1.15996
     Eigenvalues ---    1.19374   1.19795   1.20558   1.22618   1.22961
     Eigenvalues ---    1.23276   1.26320   1.26795   1.26895   1.27152
     Eigenvalues ---    1.27634   1.28989   1.29148   1.44955   1.45362
     Eigenvalues ---    1.45495   1.47818   1.51372   1.51511   1.51852
     Eigenvalues ---    1.52515   1.55432   1.55522   1.56422   1.58110
     Eigenvalues ---    1.58367   1.59440   1.61399   1.64299   1.67560
     Eigenvalues ---    1.78060   1.81146   1.83299   1.83740   1.84470
     Eigenvalues ---    1.92478   1.97360   2.70732
 Eigenvalue     1 is   0.00D+00 Eigenvector:
                          Y8        Y17       Y12       Y2        Y14
   1                    0.17439   0.17439   0.17439   0.17439   0.17439
                          Y16       Y7        Y13       Y3        Y6
   1                    0.17439   0.17439   0.17439   0.17439   0.17439
 Eigenvalue     2 is   2.48D-07 Eigenvector:
                          Y16       X16       X11       Y11       Y15
   1                    0.31469  -0.27069   0.26666  -0.24095   0.23451
                          Y14       Z11       X14       Y17       X12
   1                    0.22957  -0.19699  -0.18988   0.18647   0.18544
 Eigenvalue     3 is   2.32D-06 Eigenvector:
                          X9        X10       Y12       Y9        X12
   1                    0.33152   0.29619   0.26606  -0.24702  -0.24607
                          Y8        Y10       X15       X8        X4
   1                    0.24308  -0.22485   0.21655  -0.21397   0.20551
 Quadratic step=2.735D+01 exceeds max=3.000D-01 adjusted using Lamda=-1.141D-02.
 Angle between NR and scaled steps=  36.65 degrees.
 Angle between quadratic step and forces=  66.84 degrees.
 Linear search not attempted -- first point.
 B after Tr=    -0.000299    0.007486    0.001715
         Rot=    1.000000   -0.000163    0.000012    0.000088 Ang=  -0.02 deg.
 Variable       Old X    -DE/DX   Delta X   Delta X   Delta X     New X
                                 (Linear)    (Quad)   (Total)
    X1      -18.31897  -0.00263   0.00000  -0.00254  -0.00056 -18.31954
    Y1       15.64408   0.00790   0.00000   0.00794   0.01214  15.65623
    Z1       19.91421   0.00243   0.00000   0.00254   0.00893  19.92314
    X2      -15.85904  -0.00138   0.00000  -0.00011   0.00047 -15.85857
    Y2        8.11381  -0.00064   0.00000  -0.01856  -0.01581   8.09799
    Z2       23.05123  -0.00138   0.00000  -0.00120   0.00278  23.05401
    X3      -17.38652  -0.00089   0.00000   0.00674   0.00726 -17.37926
    Y3        7.50082  -0.00163   0.00000  -0.02385  -0.02015   7.48068
    Z3       20.96125   0.00346   0.00000  -0.00227   0.00148  20.96273
    X4      -19.09662   0.00150   0.00000   0.00112   0.00128 -19.09533
    Y4        5.47934   0.00191   0.00000  -0.01046  -0.00655   5.47279
    Z4       21.21246   0.00058   0.00000   0.01506   0.01811  21.23056
    X5      -19.29341   0.00086   0.00000  -0.00165  -0.00178 -19.29518
    Y5        4.14213  -0.00006   0.00000  -0.00664  -0.00343   4.13870
    Z5       23.46900   0.00117   0.00000   0.01905   0.02166  23.49067
    X6      -17.76230  -0.00036   0.00000  -0.01232  -0.01238 -17.77469
    Y6        4.77417  -0.00016   0.00000  -0.00002   0.00225   4.77643
    Z6       25.52134   0.00096   0.00000   0.02272   0.02557  25.54691
    X7      -16.04394  -0.00090   0.00000  -0.00600  -0.00571 -16.04966
    Y7        6.76515  -0.00130   0.00000  -0.00870  -0.00666   6.75849
    Z7       25.29940   0.00044   0.00000   0.00867   0.01221  25.31161
    X8      -14.51361   0.00021   0.00000   0.00896   0.00982 -14.50379
    Y8        9.67336  -0.00002   0.00000  -0.02583  -0.02328   9.65009
    Z8       22.92615  -0.00019   0.00000  -0.00889  -0.00438  22.92178
    X9      -20.30452   0.00006   0.00000   0.00560   0.00571 -20.29882
    Y9        4.97702   0.00001   0.00000  -0.01613  -0.01149   4.96553
    Z9       19.61221  -0.00020   0.00000   0.01272   0.01557  19.62778
   X10      -20.65693   0.00033   0.00000   0.00637   0.00597 -20.65096
   Y10        2.60004  -0.00068   0.00000  -0.01501  -0.01162   2.58842
   Z10       23.63297  -0.00020   0.00000   0.01290   0.01498  23.64795
   X11      -17.88961  -0.00047   0.00000  -0.02061  -0.02090 -17.91051
   Y11        3.70751   0.00017   0.00000   0.00932   0.01104   3.71856
   Z11       27.28341   0.00020   0.00000   0.02738   0.02988  27.31329
   X12      -14.84892   0.00047   0.00000   0.00317   0.00351 -14.84542
   Y12        7.28673  -0.00052   0.00000  -0.01227  -0.01096   7.27577
   Z12       26.90075   0.00023   0.00000   0.00419   0.00793  26.90868
   X13      -17.30617   0.00770   0.00000   0.03573   0.03655 -17.26962
   Y13        8.92940   0.01022   0.00000  -0.06661  -0.06215   8.86725
   Z13       18.59260  -0.00694   0.00000  -0.04019  -0.03599  18.55661
   X14      -15.95347  -0.00259   0.00000   0.05577   0.05696 -15.89651
   Y14       11.05265  -0.01650   0.00000  -0.11433  -0.10996  10.94269
   Z14       18.18585  -0.00063   0.00000  -0.07597  -0.07106  18.11479
   X15      -18.50720  -0.00110   0.00000  -0.00240  -0.00167 -18.50887
   Y15        8.20137   0.00067   0.00000  -0.05185  -0.04668   8.15469
   Z15       17.07025   0.00048   0.00000  -0.01581  -0.01187  17.05838
   X16      -16.00545  -0.00021   0.00000   0.04259   0.04399 -15.96146
   Y16       12.01539   0.00007   0.00000  -0.11723  -0.11225  11.90313
   Z16       16.36529   0.00010   0.00000  -0.07651  -0.07129  16.29400
   X17      -14.64854  -0.00177   0.00000   0.01673   0.01803 -14.63051
   Y17       11.81353   0.00150   0.00000  -0.05870  -0.05502  11.75851
   Z17       19.58723  -0.00063   0.00000  -0.07103  -0.06583  19.52140
   X18       -1.84109  -0.00306   0.00000  -0.01732  -0.01855  -1.85964
   Y18       -3.44995   0.00064   0.00000   0.00403   0.00724  -3.44271
   Z18       14.08306   0.00083   0.00000   0.00913   0.00967  14.09273
   X19      -15.82224   0.00299   0.00000   0.01093   0.00986 -15.81238
   Y19       -2.49560  -0.00086   0.00000   0.00906   0.01472  -2.48088
   Z19       14.09734   0.00087   0.00000   0.01155   0.01209  14.10942
   X20      -13.23933   0.00245   0.00000   0.01057   0.01025 -13.22909
   Y20        2.51370  -0.00268   0.00000  -0.00782  -0.00448   2.50922
   Z20       19.82508  -0.00064   0.00000  -0.00449  -0.00227  19.82281
   X21       -4.39568  -0.00224   0.00000  -0.00988  -0.01210  -4.40778
   Y21       -8.31193   0.00196   0.00000   0.01355   0.01531  -8.29662
   Z21       19.94702  -0.00087   0.00000  -0.01046  -0.01156  19.93546
   X22       -6.37433   0.00146   0.00000  -0.00876  -0.00911  -6.38344
   Y22        1.35227   0.00943   0.00000   0.01505   0.01964   1.37192
   Z22       12.30113  -0.00921   0.00000  -0.00788  -0.00587  12.29527
   X23      -11.33218  -0.00233   0.00000   0.00361   0.00175 -11.33043
   Y23       -7.27120  -0.00942   0.00000   0.00038   0.00580  -7.26539
   Z23       12.42755  -0.00961   0.00000  -0.00483  -0.00576  12.42179
   X24       -6.76273   0.00610   0.00000   0.01330   0.01279  -6.74995
   Y24        1.66541   0.00773   0.00000   0.00018   0.00182   1.66723
   Z24       21.53041   0.00958   0.00000   0.01128   0.01337  21.54378
   X25      -10.90487  -0.00653   0.00000  -0.01427  -0.01637 -10.92124
   Y25       -7.36250  -0.00676   0.00000   0.00521   0.00754  -7.35496
   Z25       21.66687   0.00959   0.00000   0.00448   0.00354  21.67041
   X26       -4.62789   0.00797   0.00000  -0.00343  -0.00487  -4.63276
   Y26       -4.88835  -0.00734   0.00000  -0.00625  -0.00188  -4.89023
   Z26       12.04187  -0.01011   0.00000  -0.00501  -0.00500  12.03687
   X27      -13.03783  -0.00809   0.00000  -0.00487  -0.00563 -13.04346
   Y27       -1.03387   0.00793   0.00000   0.02322   0.02908  -1.00480
   Z27       11.99225  -0.00990   0.00000  -0.00338  -0.00231  11.98994
   X28      -12.80892  -0.01111   0.00000  -0.00920  -0.01011 -12.81903
   Y28       -0.50900   0.00301   0.00000  -0.00254   0.00005  -0.50895
   Z28       21.90944   0.01002   0.00000   0.00757   0.00881  21.91825
   X29       -4.83283   0.01060   0.00000   0.00895   0.00723  -4.82560
   Y29       -5.18631  -0.00189   0.00000   0.00771   0.00888  -5.17743
   Z29       21.96862   0.01005   0.00000   0.00554   0.00545  21.97407
   X30       -5.91128  -0.00072   0.00000   0.00520   0.00529  -5.90599
   Y30        3.61565  -0.00306   0.00000   0.00064   0.00587   3.62152
   Z30       10.10286   0.00248   0.00000  -0.00904  -0.00629  10.09657
   X31      -11.60413   0.00033   0.00000  -0.00941  -0.01164 -11.61577
   Y31       -9.63280   0.00327   0.00000   0.00862   0.01479  -9.61801
   Z31       10.26960   0.00313   0.00000  -0.00047  -0.00216  10.26744
   X32       -5.01302  -0.00218   0.00000   0.00135   0.00107  -5.01196
   Y32        3.25719  -0.00213   0.00000   0.00373   0.00436   3.26155
   Z32       23.70238  -0.00294   0.00000   0.00736   0.01002  23.71240
   X33      -12.62553   0.00223   0.00000  -0.00265  -0.00507 -12.63060
   Y33       -8.90354   0.00208   0.00000  -0.00011   0.00180  -8.90174
   Z33       23.89336  -0.00318   0.00000  -0.00133  -0.00281  23.89055
   X34       -5.02504  -0.00092   0.00000  -0.01104  -0.01189  -5.03692
   Y34       -1.71464  -0.00078   0.00000  -0.00030   0.00462  -1.71002
   Z34       10.55813   0.00312   0.00000   0.01175   0.01279  10.57092
   X35      -12.63934   0.00128   0.00000   0.00649   0.00519 -12.63415
   Y35       -4.31146   0.00027   0.00000   0.01505   0.02128  -4.29018
   Z35       10.62352   0.00326   0.00000   0.01379   0.01380  10.63732
   X36       -9.95960   0.00041   0.00000   0.00338   0.00271  -9.95690
   Y36        1.01695  -0.00126   0.00000  -0.00998  -0.00837   1.00859
   Z36       23.36152  -0.00302   0.00000  -0.00608  -0.00427  23.35725
   X37       -7.66402  -0.00016   0.00000  -0.00316  -0.00519  -7.66921
   Y37       -6.70603   0.00105   0.00000   0.01134   0.01253  -6.69350
   Z37       23.44831  -0.00319   0.00000  -0.01167  -0.01231  23.43599
   X38        0.65607  -0.00432   0.00000   0.00129   0.00055   0.65662
   Y38       -0.15227  -0.00149   0.00000   0.00007   0.00173  -0.15054
   Z38       17.51286  -0.00117   0.00000  -0.00195  -0.00027  17.51259
   X39      -18.32499   0.00431   0.00000  -0.00608  -0.00779 -18.33278
   Y39       -5.67613   0.00161   0.00000   0.01218   0.01714  -5.65899
   Z39       17.60713  -0.00109   0.00000  -0.00038  -0.00094  17.60619
   X40      -12.05120   0.00227   0.00000   0.01190   0.01234 -12.03886
   Y40        6.44445  -0.00538   0.00000   0.01026   0.01450   6.45895
   Z40       16.40179   0.00081   0.00000   0.00915   0.01269  16.41447
   X41       -5.62380  -0.00116   0.00000  -0.00022  -0.00305  -5.62685
   Y41      -12.27299   0.00460   0.00000   0.00469   0.00778 -12.26522
   Z41       16.52847   0.00106   0.00000  -0.00054  -0.00296  16.52551
   X42       -3.31581  -0.00203   0.00000  -0.01571  -0.01610  -3.33191
   Y42        1.38046  -0.00256   0.00000  -0.00166   0.00179   1.38225
   Z42       14.14524   0.00125   0.00000   0.00980   0.01189  14.15713
   X43      -14.36132   0.00222   0.00000   0.00959   0.00768 -14.35364
   Y43       -7.33373   0.00242   0.00000   0.01527   0.02062  -7.31311
   Z43       14.26973   0.00095   0.00000   0.00865   0.00764  14.27737
   X44       -8.46253  -0.00041   0.00000   0.00586   0.00582  -8.45671
   Y44        4.14429  -0.00349   0.00000  -0.01326  -0.01071   4.13358
   Z44       19.69629  -0.00059   0.00000   0.00026   0.00312  19.69941
   X45       -9.19073   0.00088   0.00000  -0.00631  -0.00881  -9.19954
   Y45       -9.90838   0.00307   0.00000   0.01819   0.02081  -9.88757
   Z45       19.87419  -0.00120   0.00000  -0.01045  -0.01218  19.86201
   X46       -3.06809  -0.00245   0.00000  -0.00158  -0.00328  -3.07137
   Y46       -6.65202   0.00255   0.00000   0.00632   0.01113  -6.64089
   Z46        9.85638   0.00323   0.00000  -0.00143  -0.00195   9.85442
   X47      -14.68974   0.00263   0.00000  -0.01007  -0.01051 -14.70025
   Y47        0.48584  -0.00197   0.00000   0.01144   0.01833   0.50417
   Z47        9.72542   0.00343   0.00000   0.00484   0.00637   9.73178
   X48      -15.10047   0.00369   0.00000  -0.00089  -0.00182 -15.10228
   Y48       -0.31394  -0.00086   0.00000   0.00465   0.00690  -0.30704
   Z48       24.14670  -0.00355   0.00000   0.00283   0.00408  24.15078
   X49       -2.51034  -0.00335   0.00000   0.00140  -0.00042  -2.51076
   Y49       -5.42749   0.00035   0.00000  -0.00472  -0.00468  -5.43217
   Z49       24.17291  -0.00335   0.00000   0.00021   0.00010  24.17301
   X50       -2.30218   0.01336   0.00000   0.00388   0.00300  -2.29918
   Y50       -1.10457   0.00473   0.00000   0.00740   0.00983  -1.09473
   Z50       16.70177   0.00274   0.00000   0.01172   0.01302  16.71478
   X51      -15.36751  -0.01394   0.00000  -0.00928  -0.01080 -15.37831
   Y51       -4.74380  -0.00382   0.00000   0.00532   0.01003  -4.73376
   Z51       16.77062   0.00315   0.00000   0.01255   0.01235  16.78297
   X52      -11.13007  -0.00502   0.00000   0.00207   0.00198 -11.12809
   Y52        3.47810   0.01475   0.00000   0.01495   0.01881   3.49692
   Z52       17.10396  -0.00298   0.00000  -0.00614  -0.00355  17.10041
   X53       -6.54856   0.00443   0.00000  -0.00259  -0.00492  -6.55349
   Y53       -9.29756  -0.01384   0.00000  -0.00233   0.00066  -9.29690
   Z53       17.30737  -0.00268   0.00000  -0.01199  -0.01346  17.29391
   X54       -7.97436  -0.00055   0.00000  -0.00101  -0.00262  -7.97698
   Y54       -5.90462   0.00153   0.00000  -0.00207   0.00307  -5.90155
   Z54       11.46088   0.00217   0.00000  -0.00562  -0.00602  11.45486
   X55       -9.68746   0.00069   0.00000  -0.00605  -0.00663  -9.69409
   Y55       -0.10036  -0.00169   0.00000   0.01733   0.02281  -0.07755
   Z55       11.37151   0.00203   0.00000  -0.00540  -0.00394  11.36757
   X56      -11.64626   0.00189   0.00000  -0.00946  -0.01096 -11.65722
   Y56       -3.82266  -0.00004   0.00000  -0.00015   0.00203  -3.82063
   Z56       22.53492  -0.00240   0.00000   0.00557   0.00576  22.54069
   X57       -5.95991  -0.00154   0.00000   0.01005   0.00889  -5.95102
   Y57       -1.87806  -0.00060   0.00000   0.00388   0.00506  -1.87299
   Z57       22.52333  -0.00189   0.00000   0.01027   0.01123  22.53457
   X58       -8.20129   0.00016   0.00000  -0.00311  -0.00324  -8.20453
   Y58        2.98874  -0.00242   0.00000   0.01400   0.01809   3.00683
   Z58       14.83455   0.00105   0.00000  -0.00707  -0.00457  14.82997
   X59       -9.45283   0.00041   0.00000   0.00094  -0.00127  -9.45410
   Y59       -8.89038   0.00248   0.00000  -0.00039   0.00388  -8.88651
   Z59       14.96722   0.00159   0.00000  -0.00644  -0.00785  14.95937
   X60       -4.32353  -0.00167   0.00000   0.00952   0.00895  -4.31457
   Y60        1.04418  -0.00181   0.00000   0.00332   0.00536   1.04954
   Z60       19.03670  -0.00149   0.00000   0.01043   0.01239  19.04908
   X61      -13.32867   0.00178   0.00000  -0.01228  -0.01423 -13.34290
   Y61       -6.84589   0.00146   0.00000   0.00534   0.00892  -6.83697
   Z61       19.14808  -0.00160   0.00000   0.00588   0.00505  19.15313
   X62       -4.85591  -0.00101   0.00000  -0.00180  -0.00375  -4.85966
   Y62       -7.40034   0.00204   0.00000  -0.00228   0.00122  -7.39911
   Z62       14.83977   0.00092   0.00000  -0.00777  -0.00858  14.83119
   X63      -12.84209   0.00104   0.00000  -0.00141  -0.00179 -12.84388
   Y63        1.48279  -0.00241   0.00000   0.01694   0.02187   1.50466
   Z63       14.74055   0.00057   0.00000  -0.00438  -0.00248  14.73808
   X64      -14.75639   0.00223   0.00000  -0.00841  -0.00955 -14.76594
   Y64       -2.22875  -0.00006   0.00000   0.00339   0.00720  -2.22155
   Z64       19.19655  -0.00115   0.00000   0.00908   0.00972  19.20628
   X65       -2.90558  -0.00259   0.00000   0.00485   0.00347  -2.90211
   Y65       -3.57561  -0.00037   0.00000   0.00554   0.00728  -3.56833
   Z65       19.17942  -0.00090   0.00000   0.00754   0.00802  19.18744
   X66       -6.31913  -0.02545   0.00000  -0.04801  -0.04905  -6.36818
   Y66       -2.20614  -0.00471   0.00000  -0.00135   0.00231  -2.20383
   Z66       15.14417   0.01619   0.00000   0.02746   0.02831  15.17248
   X67      -11.34491   0.02566   0.00000   0.04167   0.04037 -11.30455
   Y67       -3.72037   0.00543   0.00000   0.01701   0.02152  -3.69885
   Z67       15.18505   0.01612   0.00000   0.02866   0.02890  15.21395
   X68       -9.63078   0.01063   0.00000   0.01986   0.01904  -9.61173
   Y68       -0.41384  -0.02449   0.00000  -0.03677  -0.03372  -0.44756
   Z68       18.79455  -0.01633   0.00000  -0.02478  -0.02344  18.77111
   X69       -7.99890  -0.01043   0.00000  -0.02156  -0.02324  -8.02214
   Y69       -5.39741   0.02331   0.00000   0.04403   0.04679  -5.35062
   Z69       18.85065  -0.01646   0.00000  -0.02684  -0.02706  18.82359
   X70       -6.09317   0.00026   0.00000  -0.00145  -0.00403  -6.09721
   Y70      -11.61971  -0.00081   0.00000  -0.00215   0.00292 -11.61678
   Z70       10.67414  -0.00061   0.00000  -0.00804  -0.01026  10.66388
   X71       -0.23873   0.00133   0.00000   0.01155   0.01069  -0.22803
   Y71       -0.04280   0.00039   0.00000   0.00314   0.00307  -0.03972
   Z71       23.27840   0.00108   0.00000   0.01036   0.01205  23.29046
   X72      -17.56588  -0.00088   0.00000  -0.01158  -0.01337 -17.57925
   Y72       -5.32950  -0.00029   0.00000   0.00339   0.00631  -5.32319
   Z72       23.42999   0.00060   0.00000   0.00736   0.00692  23.43691
   X73       -8.82737  -0.00038   0.00000  -0.00248  -0.00369  -8.83106
   Y73       -2.92676   0.00027   0.00000   0.00579   0.00928  -2.91747
   Z73       16.98866   0.00039   0.00000   0.00173   0.00228  16.99094
         Item               Value     Threshold  Converged?
 Maximum Force            0.025663     0.000450     NO 
 RMS     Force            0.005821     0.000300     NO 
 Maximum Displacement     0.112255     0.001800     NO 
 RMS     Displacement     0.020123     0.001200     NO 
 Predicted change in Energy=-5.528781D-03
 GradGradGradGradGradGradGradGradGradGradGradGradGradGradGradGradGradGrad

 Unable to Open any file for archive entry.
 1\1\GINC-X11P1N2\Force\RwB97XD\def2SVP\C8H8Cl1K3O40V1W12(1-)\MAYUMIAO\
 03-Jun-2024\0\\# def2svp wb97xd scrf=(smd,solvent=acetonitrile) g09def
 ault scf=(xqc,maxcycle=64) force guess=read nosymm\\Title Card\\-1,1\C
 l,-9.69398329,8.27849118,10.53814758\C,-8.39224138,4.29364102,12.19818
 478\C,-9.20055214,3.96926507,11.09221618\C,-10.10549485,2.89954185,11.
 22514943\C,-10.20963144,2.19191866,12.41926245\C,-9.39940595,2.5263821
 6,13.50531189\C,-8.49008945,3.57996174,13.38786811\H,-7.68026953,5.118
 92409,12.13199695\H,-10.7446916,2.63372607,10.3783362\H,-10.93117847,1
 .3758844,12.50603019\H,-9.46677418,1.96193179,14.43775825\H,-7.8577125
 8,3.85597247,14.23526435\C,-9.15802997,4.725236,9.83878145\C,-8.442214
 02,5.84881052,9.62353692\H,-9.793591,4.33998005,9.03318812\H,-8.469719
 61,6.35826837,8.6601375\H,-7.75167305,6.25145069,10.36511768\O,-0.9742
 6335,-1.82563738,7.45243391\O,-8.37276694,-1.32061502,7.45998976\O,-7.
 00595364,1.33019233,10.49097883\O,-2.32609122,-4.39848366,10.55550729\
 W,-3.37314933,0.71559225,6.50947899\W,-5.99673135,-3.84775199,6.576374
 18\W,-3.57868365,0.88129665,11.39339998\W,-5.77060761,-3.89606557,11.4
 6561426\W,-2.44897557,-2.58680192,6.37228359\W,-6.89932156,-0.54710283
 ,6.34602378\W,-6.77819087,-0.26934875,11.59397628\W,-2.5574243,-2.7444
 7837,11.62529267\O,-3.1281166,1.91332119,5.34620379\O,-6.1406403,-5.09
 746027,5.43443886\O,-2.652778,1.72362938,12.54276176\O,-6.68114175,-4.
 71154803,12.64382175\O,-2.65913516,-0.90734943,5.58712261\O,-6.6884506
 8,-2.28152847,5.62172343\O,-5.27039545,0.5381494,12.36238434\O,-4.0556
 2548,-3.54867689,12.40830907\O,0.34717778,-0.08057551,9.26740695\O,-9.
 69716887,-3.00367661,9.31729281\O,-6.37722061,3.41025631,8.67945185\O,
 -2.97598623,-6.49458849,8.74648938\O,-1.75465159,0.73050924,7.48534009
 \O,-7.59968201,-3.88084241,7.55121693\O,-4.47817555,2.19306634,10.4228
 2808\O,-4.8635268,-5.24329011,10.5169705\O,-1.62356411,-3.52009817,5.2
 1576929\O,-7.77347681,0.25709705,5.14646919\O,-7.99082438,-0.16612956,
 12.7778832\O,-1.32841272,-2.87210595,12.79175268\W,-1.21826159,-0.5845
 1235,8.83819368\W,-8.13213655,-2.51030895,8.87462863\W,-5.88977958,1.8
 4053388,9.05102347\W,-3.46535118,-4.92005752,9.1586651\O,-4.21984952,-
 3.12459244,6.06483706\O,-5.12638109,-0.05310621,6.01754562\O,-6.162933
 11,-2.02286392,11.92496835\O,-3.1538502,-0.99382526,11.91883519\O,-4.3
 399366,1.58157337,7.85010453\O,-5.00222434,-4.70458713,7.92031295\O,-2
 .2879119,0.55255598,10.0737857\O,-7.05323011,-3.62269081,10.13272956\O
 ,-2.56963689,-3.91608869,7.85286659\O,-6.79574023,0.78466029,7.8003645
 \O,-7.80874545,-1.17940252,10.15837752\O,-1.53756704,-1.89213165,10.14
 931219\O,-3.34393751,-1.16743735,8.01395036\O,-6.00346998,-1.96873629,
 8.03558258\O,-5.09638695,-0.21899293,9.94564623\O,-4.23283622,-2.85618
 6,9.9753328\K,-3.22436866,-6.14888331,5.64851039\K,-0.12632829,-0.0226
 4724,12.31839987\K,-9.29546467,-2.82024956,12.39861732\V,-4.67124339,-
 1.5487733,8.99000971\\Version=ES64L-G16RevC.01\HF=-7327.7022607\RMSD=9
 .917e-09\RMSF=5.821e-03\Dipole=10.000166,-22.0168561,2.346729\Quadrupo
 le=-68.5620246,46.4583762,22.1036484,333.7124043,334.8395701,-356.5226
 225\PG=C01 [X(C8H8Cl1K3O40V1W12)]\\@
 The archive entry for this job was punched.


    THE DOUGHNUT CREED
 AS YOU RAMBLE ON THROUGH LIFE, BROTHER
 WHATEVER BE YOUR GOAL
 KEEP YOUR EYE UPON THE DOUGHNUT
 AND NOT UPON THE HOLE.
 Job cpu time:       0 days  8 hours 37 minutes  1.0 seconds.
 Elapsed time:       0 days  0 hours  9 minutes 47.2 seconds.
 File lengths (MBytes):  RWF=   1256 Int=      0 D2E=      0 Chk=    249 Scr=      1
 Normal termination of Gaussian 16 at Mon Jun  3 06:29:46 2024.
