 Entering Gaussian System, Link 0=g16
 Input=JOBS/72_A.gjf
 Output=JOBS/72_A.log
 Initial command:
 /data/app/gaussian/C01-avx2//g16/l1.exe "/tmp/Gau-719190.inp" -scrdir="/tmp/"
 Entering Link 1 = /data/app/gaussian/C01-avx2//g16/l1.exe PID=    719191.
  
 Copyright (c) 1988-2019, Gaussian, Inc.  All Rights Reserved.
  
 This is part of the Gaussian(R) 16 program.  It is based on
 the Gaussian(R) 09 system (copyright 2009, Gaussian, Inc.),
 the Gaussian(R) 03 system (copyright 2003, Gaussian, Inc.),
 the Gaussian(R) 98 system (copyright 1998, Gaussian, Inc.),
 the Gaussian(R) 94 system (copyright 1995, Gaussian, Inc.),
 the Gaussian 92(TM) system (copyright 1992, Gaussian, Inc.),
 the Gaussian 90(TM) system (copyright 1990, Gaussian, Inc.),
 the Gaussian 88(TM) system (copyright 1988, Gaussian, Inc.),
 the Gaussian 86(TM) system (copyright 1986, Carnegie Mellon
 University), and the Gaussian 82(TM) system (copyright 1983,
 Carnegie Mellon University). Gaussian is a federally registered
 trademark of Gaussian, Inc.
  
 This software contains proprietary and confidential information,
 including trade secrets, belonging to Gaussian, Inc.
  
 This software is provided under written license and may be
 used, copied, transmitted, or stored only in accord with that
 written license.
  
 The following legend is applicable only to US Government
 contracts under FAR:
  
                    RESTRICTED RIGHTS LEGEND
  
 Use, reproduction and disclosure by the US Government is
 subject to restrictions as set forth in subparagraphs (a)
 and (c) of the Commercial Computer Software - Restricted
 Rights clause in FAR 52.227-19.
  
 Gaussian, Inc.
 340 Quinnipiac St., Bldg. 40, Wallingford CT 06492
  
  
 ---------------------------------------------------------------
 Warning -- This program may not be used in any manner that
 competes with the business of Gaussian, Inc. or will provide
 assistance to any competitor of Gaussian, Inc.  The licensee
 of this program is prohibited from giving any competitor of
 Gaussian, Inc. access to this program.  By using this program,
 the user acknowledges that Gaussian, Inc. is engaged in the
 business of creating and licensing software in the field of
 computational chemistry and represents and warrants to the
 licensee that it is not a competitor of Gaussian, Inc. and that
 it will not use this program in any manner prohibited above.
 ---------------------------------------------------------------
  

 Cite this work as:
 Gaussian 16, Revision C.01,
 M. J. Frisch, G. W. Trucks, H. B. Schlegel, G. E. Scuseria, 
 M. A. Robb, J. R. Cheeseman, G. Scalmani, V. Barone, 
 G. A. Petersson, H. Nakatsuji, X. Li, M. Caricato, A. V. Marenich, 
 J. Bloino, B. G. Janesko, R. Gomperts, B. Mennucci, H. P. Hratchian, 
 J. V. Ortiz, A. F. Izmaylov, J. L. Sonnenberg, D. Williams-Young, 
 F. Ding, F. Lipparini, F. Egidi, J. Goings, B. Peng, A. Petrone, 
 T. Henderson, D. Ranasinghe, V. G. Zakrzewski, J. Gao, N. Rega, 
 G. Zheng, W. Liang, M. Hada, M. Ehara, K. Toyota, R. Fukuda, 
 J. Hasegawa, M. Ishida, T. Nakajima, Y. Honda, O. Kitao, H. Nakai, 
 T. Vreven, K. Throssell, J. A. Montgomery, Jr., J. E. Peralta, 
 F. Ogliaro, M. J. Bearpark, J. J. Heyd, E. N. Brothers, K. N. Kudin, 
 V. N. Staroverov, T. A. Keith, R. Kobayashi, J. Normand, 
 K. Raghavachari, A. P. Rendell, J. C. Burant, S. S. Iyengar, 
 J. Tomasi, M. Cossi, J. M. Millam, M. Klene, C. Adamo, R. Cammi, 
 J. W. Ochterski, R. L. Martin, K. Morokuma, O. Farkas, 
 J. B. Foresman, and D. J. Fox, Gaussian, Inc., Wallingford CT, 2019.
 
 ******************************************
 Gaussian 16:  ES64L-G16RevC.01  3-Jul-2019
                 3-Jun-2024 
 ******************************************
 %chk=a.chk
 %nprocshared=56
 Will use up to   56 processors via shared memory.
 %mem=96gb
 ----------------------------------------------------------------------
 # def2svp wb97xd scrf=(smd,solvent=acetonitrile) g09default scf=(xqc,m
 axcycle=64) force guess=read nosymm
 ----------------------------------------------------------------------
 1/10=7,30=1,38=1,158=3,167=1/1,3;
 2/12=2,15=1,17=6,18=5,40=1/2;
 3/5=43,7=101,11=2,25=1,27=10,30=1,70=32201,71=1,72=2,74=-58,75=-4,116=-2,158=3/1,2,3;
 4/5=1,60=-1/1;
 5/5=2,7=64,8=3,13=1,38=6,53=2,87=10/2,8;
 6/7=2,8=2,9=2,10=2,28=1,87=10/1;
 7/29=1,30=1,87=10/1,2,3,16;
 1/10=7,30=1,158=3,167=1/3;
 99//99;
 Using 2006 physical constants.
 ----------
 Title Card
 ----------
 Symbolic Z-matrix:
 Charge = -1 Multiplicity = 1
 17                   -9.70066   8.28012   10.53905 
 6                    -8.39569   4.2967    12.19764 
 6                    -9.20603   3.97325   11.09275 
 6                    -10.10936   2.90217   11.2262 
 6                    -10.20974   2.19242   12.41928 
 6                    -9.39757   2.52613   13.50424 
 6                    -8.48981   3.58102   13.38626 
 1                    -7.68496   5.12295   12.1308 
 1                    -10.75004   2.63621   10.38042 
 1                    -10.92952   1.37479   12.50642 
 1                    -9.46205   1.96008   14.43584 
 1                    -7.85535   3.85609   14.23245 
 6                    -9.16451   4.73056   9.84001 
 6                    -8.44288   5.85007   9.62259 
 1                    -9.80494   4.34974   9.03618 
 1                    -8.4689    6.35867   8.65869 
 1                    -7.74794   6.24909   10.36212 
 8                    -0.97392  -1.82704   7.45155 
 8                    -8.37216  -1.31985   7.45953 
 8                    -7.00538   1.32904   10.49223 
 8                    -2.32509  -4.3989    10.55568 
 74                   -3.37159   0.71642   6.5114 
 74                   -5.99754  -3.84903   6.57797 
 74                   -3.57686   0.88171   11.39229 
 74                   -5.77079  -3.89792   11.46389 
 74                   -2.45011  -2.58688   6.37036 
 74                   -6.89733  -0.54753   6.34492 
 74                   -6.77587  -0.27049   11.59592 
 74                   -2.55804  -2.7447    11.62653 
 8                    -3.12556   1.91501   5.34881 
 8                    -6.14234  -5.09883   5.43648 
 8                    -2.65086   1.72471   12.54103 
 8                    -6.68097  -4.71449   12.64165 
 8                    -2.65844  -0.90669   5.58712 
 8                    -6.68765  -2.28209   5.62197 
 8                    -5.26851   0.53759   12.36301 
 8                    -4.05578  -3.54992   12.40809 
 8                     0.34902  -0.08493   9.2667 
 8                    -9.69799  -3.00023   9.31747 
 8                    -6.37946   3.40909   8.68096 
 8                    -2.97293  -6.49429   8.74645 
 8                    -1.75331   0.72982   7.48656 
 8                    -7.60022  -3.88052   7.55204 
 8                    -4.47782   2.19285   10.42287 
 8                    -4.86264  -5.24407   10.51571 
 8                    -1.62549  -3.51999   5.21341 
 8                    -7.77089   0.25653   5.14501 
 8                    -7.9882   -0.16744   12.78024 
 8                    -1.32891  -2.87292   12.79282 
 74                   -1.21689  -0.58754   8.83784 
 74                   -8.13244  -2.50807   8.87481 
 74                   -5.89071   1.83942   9.05188 
 74                   -3.46282  -4.92009   9.15839 
 8                    -4.22028  -3.12479   6.06451 
 8                    -5.12491  -0.05283   6.01761 
 8                    -6.16209  -2.02424   11.925 
 8                    -3.15282  -0.99407   11.91974 
 8                    -4.33953   1.58155   7.85101 
 8                    -5.00136  -4.70501   7.92029 
 8                    -2.2867    0.55133   10.07366 
 8                    -7.05368  -3.62293   10.13236 
 8                    -2.56885  -3.91621   7.85205 
 8                    -6.79515   0.78394   7.8005 
 8                    -7.80794  -1.17908   10.15905 
 8                    -1.5375   -1.89358   10.1495 
 8                    -3.34348  -1.168     8.01374 
 8                    -6.00305  -1.96884   8.03588 
 8                    -5.09539  -0.21964   9.94618 
 8                    -4.23209  -2.85664   9.97528 
 19                   -3.22504  -6.15014   5.64846 
 19                   -0.12502  -0.02725   12.31966 
 19                   -9.29687  -2.82069   12.39677 
 23                   -4.67059  -1.54912   8.9901 
 

 GradGradGradGradGradGradGradGradGradGradGradGradGradGradGradGradGradGrad
 Berny optimization.
 Initialization pass.
 Trust Radius=3.00D-01 FncErr=1.00D-07 GrdErr=1.00D-07 EigMax=2.50D+02 EigMin=1.00D-04
 Number of steps in this run=      2 maximum allowed number of steps=      2.
 GradGradGradGradGradGradGradGradGradGradGradGradGradGradGradGradGradGrad

 Symmetry turned off by external request.
 Stoichiometry    C8H8ClK3O40VW12(1-)
 Framework group  C1[X(C8H8ClK3O40VW12)]
 Deg. of freedom   213
 Full point group                 C1      NOp   1
                          Input orientation:                          
 ---------------------------------------------------------------------
 Center     Atomic      Atomic             Coordinates (Angstroms)
 Number     Number       Type             X           Y           Z
 ---------------------------------------------------------------------
      1         17           0       -9.700658    8.280117   10.539047
      2          6           0       -8.395689    4.296699   12.197639
      3          6           0       -9.206031    3.973248   11.092755
      4          6           0      -10.109357    2.902174   11.226201
      5          6           0      -10.209740    2.192417   12.419284
      6          6           0       -9.397568    2.526132   13.504244
      7          6           0       -8.489814    3.581022   13.386260
      8          1           0       -7.684964    5.122951   12.130797
      9          1           0      -10.750037    2.636213   10.380423
     10          1           0      -10.929519    1.374792   12.506423
     11          1           0       -9.462052    1.960081   14.435835
     12          1           0       -7.855349    3.856091   14.232448
     13          6           0       -9.164513    4.730563    9.840006
     14          6           0       -8.442880    5.850069    9.622590
     15          1           0       -9.804938    4.349745    9.036178
     16          1           0       -8.468901    6.358668    8.658690
     17          1           0       -7.747935    6.249092   10.362118
     18          8           0       -0.973916   -1.827039    7.451547
     19          8           0       -8.372161   -1.319849    7.459532
     20          8           0       -7.005381    1.329036   10.492230
     21          8           0       -2.325085   -4.398903   10.555681
     22         74           0       -3.371595    0.716424    6.511400
     23         74           0       -5.997538   -3.849034    6.577970
     24         74           0       -3.576858    0.881711   11.392289
     25         74           0       -5.770792   -3.897918   11.463893
     26         74           0       -2.450105   -2.586880    6.370363
     27         74           0       -6.897330   -0.547526    6.344917
     28         74           0       -6.775871   -0.270487   11.595917
     29         74           0       -2.558044   -2.744703   11.626532
     30          8           0       -3.125563    1.915014    5.348805
     31          8           0       -6.142343   -5.098825    5.436475
     32          8           0       -2.650863    1.724708   12.541034
     33          8           0       -6.680972   -4.714490   12.641648
     34          8           0       -2.658444   -0.906687    5.587121
     35          8           0       -6.687654   -2.282093    5.621965
     36          8           0       -5.268510    0.537586   12.363014
     37          8           0       -4.055777   -3.549923   12.408090
     38          8           0        0.349017   -0.084935    9.266700
     39          8           0       -9.697994   -3.000230    9.317465
     40          8           0       -6.379458    3.409091    8.680959
     41          8           0       -2.972933   -6.494295    8.746452
     42          8           0       -1.753310    0.729816    7.486565
     43          8           0       -7.600217   -3.880515    7.552038
     44          8           0       -4.477819    2.192849   10.422872
     45          8           0       -4.862635   -5.244067   10.515711
     46          8           0       -1.625489   -3.519989    5.213414
     47          8           0       -7.770889    0.256527    5.145011
     48          8           0       -7.988200   -0.167442   12.780236
     49          8           0       -1.328908   -2.872918   12.792823
     50         74           0       -1.216890   -0.587536    8.837838
     51         74           0       -8.132444   -2.508069    8.874809
     52         74           0       -5.890706    1.839418    9.051875
     53         74           0       -3.462820   -4.920088    9.158392
     54          8           0       -4.220277   -3.124791    6.064506
     55          8           0       -5.124914   -0.052833    6.017614
     56          8           0       -6.162087   -2.024242   11.925002
     57          8           0       -3.152816   -0.994070   11.919738
     58          8           0       -4.339532    1.581551    7.851008
     59          8           0       -5.001357   -4.705010    7.920285
     60          8           0       -2.286705    0.551334   10.073661
     61          8           0       -7.053685   -3.622928   10.132360
     62          8           0       -2.568849   -3.916212    7.852049
     63          8           0       -6.795147    0.783945    7.800505
     64          8           0       -7.807936   -1.179078   10.159054
     65          8           0       -1.537503   -1.893577   10.149502
     66          8           0       -3.343477   -1.167999    8.013736
     67          8           0       -6.003050   -1.968838    8.035882
     68          8           0       -5.095386   -0.219639    9.946183
     69          8           0       -4.232091   -2.856640    9.975276
     70         19           0       -3.225044   -6.150136    5.648458
     71         19           0       -0.125018   -0.027245   12.319657
     72         19           0       -9.296869   -2.820690   12.396772
     73         23           0       -4.670591   -1.549123    8.990105
 ---------------------------------------------------------------------
 Rotational constants (GHZ):           0.0171955           0.0131769           0.0129566
 Standard basis: def2SVP (5D, 7F)
  1217 basis functions,  2313 primitive gaussians,  1337 cartesian basis functions
   321 alpha electrons      321 beta electrons
       nuclear repulsion energy     20956.6006216657 Hartrees.
 NAtoms=   73 NActive=   73 NUniq=   73 SFac= 1.00D+00 NAtFMM=   60 NAOKFM=T Big=T
 Integral buffers will be    131072 words long.
 Raffenetti 2 integral format.
 Two-electron integral symmetry is turned off.
 Nuclear repulsion after empirical dispersion term =    20956.3246086199 Hartrees.
 Force PCM accuracy= 1.00D-10.
 ------------------------------------------------------------------------------
 Polarizable Continuum Model (PCM)
 =================================
 Model                : PCM (using non-symmetric T matrix).
 Atomic radii         : SMD-Coulomb.
 Polarization charges : Total charges.
 Charge compensation  : None.
 Solution method      : On-the-fly selection.
 Cavity type          : VdW (van der Waals Surface) (Alpha=1.000).
 Cavity algorithm     : GePol (No added spheres)
                        Default sphere list used, NSphG=   73.
                        Lebedev-Laikov grids with approx.  5.0 points / Ang**2.
                        Smoothing algorithm: York/Karplus (Gamma=1.0000).
                        Polarization charges: spherical gaussians, with
                                              point-specific exponents (IZeta= 3).
                        Self-potential: point-specific (ISelfS= 7).
                        Self-field    : sphere-specific E.n sum rule (ISelfD= 2).
 1st derivatives      : Analytical E(r).r(x)/FMM algorithm (CHGder, D1EAlg=3).
                        Cavity 1st derivative terms included.
 Solvent              : Acetonitrile, Eps=  35.688000 Eps(inf)=   1.806874
 ------------------------------------------------------------------------------
 ------------------------------------------------------------------------------
 Atomic radii for non-electrostatic terms: SMD-CDS.
 ------------------------------------------------------------------------------
 Nuclear repulsion after PCM non-electrostatic terms =    20956.3188290479 Hartrees.
 One-electron integrals computed using PRISM.
   1 Symmetry operations used in ECPInt.
 ECPInt:  NShTT=  127765 NPrTT=  468030 LenC2=   96412 LenP2D=  220595.
 LDataN:  DoStor=T MaxTD1= 8 Len=  415
 NBasis=  1217 RedAO= T EigKep=  1.38D-04  NBF=  1217
 NBsUse=  1217 1.00D-06 EigRej= -1.00D+00 NBFU=  1217
 Defaulting to unpruned grid for atomic number  74.
 Defaulting to unpruned grid for atomic number  74.
 Defaulting to unpruned grid for atomic number  74.
 Defaulting to unpruned grid for atomic number  74.
 Defaulting to unpruned grid for atomic number  74.
 Defaulting to unpruned grid for atomic number  74.
 Defaulting to unpruned grid for atomic number  74.
 Defaulting to unpruned grid for atomic number  74.
 Initial guess from the checkpoint file:  "a.chk"
 B after Tr=     0.000753    0.000202    0.000306
         Rot=    1.000000   -0.000044   -0.000004    0.000030 Ang=  -0.01 deg.
 Requested convergence on RMS density matrix=1.00D-08 within  64 cycles.
 Requested convergence on MAX density matrix=1.00D-06.
 Requested convergence on             energy=1.00D-06.
 No special actions if energy rises.
 Defaulting to unpruned grid for atomic number  74.
 Defaulting to unpruned grid for atomic number  74.
 Defaulting to unpruned grid for atomic number  74.
 Defaulting to unpruned grid for atomic number  74.
 Defaulting to unpruned grid for atomic number  74.
 Defaulting to unpruned grid for atomic number  74.
 Defaulting to unpruned grid for atomic number  74.
 Defaulting to unpruned grid for atomic number  74.
 Defaulting to unpruned grid for atomic number  74.
 Defaulting to unpruned grid for atomic number  74.
 Defaulting to unpruned grid for atomic number  74.
 Defaulting to unpruned grid for atomic number  74.
 Defaulting to unpruned grid for atomic number  74.
 Defaulting to unpruned grid for atomic number  74.
 Defaulting to unpruned grid for atomic number  74.
 Defaulting to unpruned grid for atomic number  74.
 Defaulting to unpruned grid for atomic number  74.
 Defaulting to unpruned grid for atomic number  74.
 Defaulting to unpruned grid for atomic number  74.
 Defaulting to unpruned grid for atomic number  74.
 Defaulting to unpruned grid for atomic number  74.
 Defaulting to unpruned grid for atomic number  74.
 Defaulting to unpruned grid for atomic number  74.
 Defaulting to unpruned grid for atomic number  74.
 Defaulting to unpruned grid for atomic number  74.
 Defaulting to unpruned grid for atomic number  74.
 Defaulting to unpruned grid for atomic number  74.
 Defaulting to unpruned grid for atomic number  74.
 Defaulting to unpruned grid for atomic number  74.
 Defaulting to unpruned grid for atomic number  74.
 Defaulting to unpruned grid for atomic number  74.
 Defaulting to unpruned grid for atomic number  74.
 Defaulting to unpruned grid for atomic number  74.
 Defaulting to unpruned grid for atomic number  74.
 Defaulting to unpruned grid for atomic number  74.
 Defaulting to unpruned grid for atomic number  74.
 Defaulting to unpruned grid for atomic number  74.
 Defaulting to unpruned grid for atomic number  74.
 Defaulting to unpruned grid for atomic number  74.
 Defaulting to unpruned grid for atomic number  74.
 Defaulting to unpruned grid for atomic number  74.
 Defaulting to unpruned grid for atomic number  74.
 Defaulting to unpruned grid for atomic number  74.
 Defaulting to unpruned grid for atomic number  74.
 Defaulting to unpruned grid for atomic number  74.
 Defaulting to unpruned grid for atomic number  74.
 Defaulting to unpruned grid for atomic number  74.
 Defaulting to unpruned grid for atomic number  74.
 Defaulting to unpruned grid for atomic number  74.
 Defaulting to unpruned grid for atomic number  74.
 Defaulting to unpruned grid for atomic number  74.
 Defaulting to unpruned grid for atomic number  74.
 Defaulting to unpruned grid for atomic number  74.
 Defaulting to unpruned grid for atomic number  74.
 Defaulting to unpruned grid for atomic number  74.
 Defaulting to unpruned grid for atomic number  74.
 Inv3:  Mode=1 IEnd=    87382827.
 Iteration    1 A*A^-1 deviation from unit magnitude is 3.33D-15 for   1108.
 Iteration    1 A*A^-1 deviation from orthogonality  is 2.89D-15 for   3178   2493.
 Iteration    1 A^-1*A deviation from unit magnitude is 3.77D-15 for   4335.
 Iteration    1 A^-1*A deviation from orthogonality  is 5.25D-12 for   3272   3255.
 Error on total polarization charges =  0.01622
 SCF Done:  E(RwB97XD) =  -7327.70228222     A.U. after   13 cycles
            NFock= 13  Conv=0.19D-08     -V/T= 2.0832
 SMD-CDS (non-electrostatic) energy       (kcal/mol) =      -3.63
 (included in total energy above)
 QCSCF skips out because SCF is already converged.

 **********************************************************************

            Population analysis using the SCF Density.

 **********************************************************************

 Alpha  occ. eigenvalues -- -197.29323-130.00127-130.00040-130.00012-101.48315
 Alpha  occ. eigenvalues --  -22.62462 -19.33618 -19.33609 -19.33607 -19.33583
 Alpha  occ. eigenvalues --  -19.30732 -19.30694 -19.30689 -19.30686 -19.30665
 Alpha  occ. eigenvalues --  -19.30662 -19.30658 -19.30637 -19.30587 -19.30365
 Alpha  occ. eigenvalues --  -19.30344 -19.30174 -19.29376 -19.29359 -19.29357
 Alpha  occ. eigenvalues --  -19.29341 -19.29335 -19.29317 -19.29306 -19.29283
 Alpha  occ. eigenvalues --  -19.29241 -19.29226 -19.29213 -19.29206 -19.29190
 Alpha  occ. eigenvalues --  -19.29161 -19.29129 -19.29123 -19.29119 -19.29117
 Alpha  occ. eigenvalues --  -19.29108 -19.29093 -19.29045 -19.29003 -19.28982
 Alpha  occ. eigenvalues --  -19.28902 -19.11417 -19.11408 -19.11400 -13.37529
 Alpha  occ. eigenvalues --  -13.37433 -13.37408 -10.70458 -10.70451 -10.70451
 Alpha  occ. eigenvalues --  -10.70364 -10.70357 -10.70352 -10.70339 -10.70332
 Alpha  occ. eigenvalues --  -10.70331 -10.29876 -10.29319 -10.29304 -10.29045
 Alpha  occ. eigenvalues --  -10.28989 -10.28914 -10.28210 -10.27469  -9.38786
 Alpha  occ. eigenvalues --   -7.13616  -7.13560  -7.13557  -3.23300  -3.23289
 Alpha  occ. eigenvalues --   -3.23284  -3.23282  -3.23267  -3.23237  -3.23234
 Alpha  occ. eigenvalues --   -3.23230  -3.23217  -3.22951  -3.22936  -3.22762
 Alpha  occ. eigenvalues --   -2.91744  -1.94134  -1.94104  -1.94094  -1.87708
 Alpha  occ. eigenvalues --   -1.87656  -1.87647  -1.87611  -1.87483  -1.87461
 Alpha  occ. eigenvalues --   -1.87457  -1.87443  -1.87419  -1.87264  -1.87235
 Alpha  occ. eigenvalues --   -1.87088  -1.86624  -1.86504  -1.86495  -1.86480
 Alpha  occ. eigenvalues --   -1.86448  -1.86426  -1.86340  -1.86311  -1.86301
 Alpha  occ. eigenvalues --   -1.86291  -1.86270  -1.86258  -1.86140  -1.86126
 Alpha  occ. eigenvalues --   -1.86113  -1.86100  -1.86032  -1.86015  -1.85985
 Alpha  occ. eigenvalues --   -1.85911  -1.85889  -1.85792  -1.85714  -1.85657
 Alpha  occ. eigenvalues --   -1.51217  -1.51125  -1.51107  -1.13020  -1.11245
 Alpha  occ. eigenvalues --   -1.11161  -1.11159  -1.08969  -1.08532  -1.08500
 Alpha  occ. eigenvalues --   -1.08312  -1.07557  -1.07487  -1.07482  -1.06899
 Alpha  occ. eigenvalues --   -1.06887  -1.06869  -1.06295  -1.06271  -1.05360
 Alpha  occ. eigenvalues --   -1.05353  -1.04977  -1.04972  -1.04955  -1.04234
 Alpha  occ. eigenvalues --   -1.04227  -1.04192  -1.04047  -1.04015  -1.03998
 Alpha  occ. eigenvalues --   -1.03940  -1.03923  -1.03894  -1.03765  -1.03752
 Alpha  occ. eigenvalues --   -1.03618  -1.03572  -1.03304  -1.03274  -1.03160
 Alpha  occ. eigenvalues --   -1.03142  -1.03079  -1.02993  -0.94367  -0.86682
 Alpha  occ. eigenvalues --   -0.86600  -0.86585  -0.86515  -0.86492  -0.86491
 Alpha  occ. eigenvalues --   -0.86416  -0.86390  -0.86382  -0.86380  -0.82809
 Alpha  occ. eigenvalues --   -0.79731  -0.71545  -0.69661  -0.68001  -0.64585
 Alpha  occ. eigenvalues --   -0.63955  -0.63890  -0.63869  -0.63275  -0.63258
 Alpha  occ. eigenvalues --   -0.63148  -0.62957  -0.62662  -0.62599  -0.61940
 Alpha  occ. eigenvalues --   -0.61599  -0.61578  -0.61482  -0.61231  -0.61210
 Alpha  occ. eigenvalues --   -0.61170  -0.60420  -0.59465  -0.59441  -0.59424
 Alpha  occ. eigenvalues --   -0.59378  -0.59349  -0.58672  -0.58008  -0.57974
 Alpha  occ. eigenvalues --   -0.57893  -0.57055  -0.57032  -0.56999  -0.56267
 Alpha  occ. eigenvalues --   -0.56245  -0.56098  -0.55709  -0.54871  -0.54808
 Alpha  occ. eigenvalues --   -0.54767  -0.54525  -0.54237  -0.54116  -0.54101
 Alpha  occ. eigenvalues --   -0.54032  -0.53963  -0.53269  -0.53231  -0.53095
 Alpha  occ. eigenvalues --   -0.53052  -0.52913  -0.52740  -0.52710  -0.52657
 Alpha  occ. eigenvalues --   -0.52624  -0.52515  -0.52460  -0.52410  -0.51625
 Alpha  occ. eigenvalues --   -0.51607  -0.51381  -0.51343  -0.51317  -0.51260
 Alpha  occ. eigenvalues --   -0.51192  -0.51168  -0.50977  -0.50803  -0.50624
 Alpha  occ. eigenvalues --   -0.50599  -0.50599  -0.49957  -0.49939  -0.49297
 Alpha  occ. eigenvalues --   -0.49264  -0.49237  -0.49217  -0.49164  -0.49090
 Alpha  occ. eigenvalues --   -0.48906  -0.48082  -0.48037  -0.47923  -0.47637
 Alpha  occ. eigenvalues --   -0.47398  -0.47295  -0.47250  -0.47041  -0.46977
 Alpha  occ. eigenvalues --   -0.46917  -0.46629  -0.46625  -0.46468  -0.46216
 Alpha  occ. eigenvalues --   -0.46162  -0.46123  -0.45665  -0.45110  -0.44935
 Alpha  occ. eigenvalues --   -0.44901  -0.44202  -0.44159  -0.44041  -0.43538
 Alpha  occ. eigenvalues --   -0.43325  -0.43282  -0.43145  -0.43139  -0.43101
 Alpha  occ. eigenvalues --   -0.42774  -0.42749  -0.42713  -0.42625  -0.42609
 Alpha  occ. eigenvalues --   -0.42540  -0.42502  -0.42490  -0.42315  -0.42308
 Alpha  occ. eigenvalues --   -0.42281  -0.42060  -0.41923  -0.41882  -0.41870
 Alpha  occ. eigenvalues --   -0.41266  -0.41245  -0.41189  -0.41108  -0.40598
 Alpha  occ. eigenvalues --   -0.40585  -0.40575  -0.40344  -0.39458  -0.39446
 Alpha  occ. eigenvalues --   -0.37069  -0.32569  -0.29225  -0.25093  -0.25064
 Alpha  occ. eigenvalues --   -0.23448
 Alpha virt. eigenvalues --   -0.09369  -0.09167  -0.08315  -0.08269  -0.06879
 Alpha virt. eigenvalues --   -0.06853  -0.06762  -0.04382  -0.04101  -0.04047
 Alpha virt. eigenvalues --   -0.03727  -0.03502  -0.03441  -0.03223  -0.03070
 Alpha virt. eigenvalues --   -0.03028  -0.03007  -0.02238  -0.02191  -0.02165
 Alpha virt. eigenvalues --   -0.01475  -0.01449  -0.01395  -0.01298  -0.01220
 Alpha virt. eigenvalues --   -0.00041  -0.00021   0.00027   0.01399   0.01420
 Alpha virt. eigenvalues --    0.01874   0.01917   0.02002   0.02133   0.02184
 Alpha virt. eigenvalues --    0.02205   0.02262   0.02326   0.02779   0.02850
 Alpha virt. eigenvalues --    0.02930   0.02997   0.03031   0.04406   0.04541
 Alpha virt. eigenvalues --    0.06744   0.07228   0.07433   0.07479   0.07707
 Alpha virt. eigenvalues --    0.08004   0.08490   0.08509   0.08764   0.09136
 Alpha virt. eigenvalues --    0.09306   0.09366   0.09642   0.09843   0.10172
 Alpha virt. eigenvalues --    0.10241   0.10283   0.10309   0.10367   0.10625
 Alpha virt. eigenvalues --    0.10885   0.11038   0.11062   0.11616   0.11715
 Alpha virt. eigenvalues --    0.12197   0.13114   0.13213   0.13324   0.13606
 Alpha virt. eigenvalues --    0.13750   0.14443   0.14548   0.14652   0.14978
 Alpha virt. eigenvalues --    0.15487   0.16116   0.16326   0.16524   0.16687
 Alpha virt. eigenvalues --    0.16708   0.16904   0.17048   0.17215   0.17642
 Alpha virt. eigenvalues --    0.17886   0.18124   0.18187   0.18374   0.18543
 Alpha virt. eigenvalues --    0.18716   0.18903   0.19180   0.19306   0.19493
 Alpha virt. eigenvalues --    0.19541   0.20085   0.20242   0.20361   0.20578
 Alpha virt. eigenvalues --    0.20675   0.20840   0.20928   0.21246   0.21343
 Alpha virt. eigenvalues --    0.21395   0.21498   0.21609   0.21881   0.22039
 Alpha virt. eigenvalues --    0.22445   0.22702   0.22858   0.23161   0.23202
 Alpha virt. eigenvalues --    0.23407   0.23752   0.23929   0.24226   0.24551
 Alpha virt. eigenvalues --    0.24784   0.25208   0.25454   0.25618   0.25917
 Alpha virt. eigenvalues --    0.26026   0.26152   0.26430   0.26492   0.26753
 Alpha virt. eigenvalues --    0.26945   0.27241   0.27346   0.27415   0.27649
 Alpha virt. eigenvalues --    0.27990   0.28219   0.28291   0.28475   0.28685
 Alpha virt. eigenvalues --    0.28989   0.29600   0.29889   0.30453   0.30470
 Alpha virt. eigenvalues --    0.30698   0.30924   0.31209   0.31459   0.31779
 Alpha virt. eigenvalues --    0.32211   0.34754   0.35144   0.35817   0.36280
 Alpha virt. eigenvalues --    0.36582   0.36872   0.37178   0.38077   0.38395
 Alpha virt. eigenvalues --    0.38604   0.39118   0.39446   0.39580   0.40216
 Alpha virt. eigenvalues --    0.40653   0.40837   0.40907   0.41109   0.41650
 Alpha virt. eigenvalues --    0.42053   0.42237   0.42628   0.43255   0.43433
 Alpha virt. eigenvalues --    0.43673   0.44384   0.44660   0.44758   0.45113
 Alpha virt. eigenvalues --    0.45659   0.46242   0.46459   0.46656   0.47139
 Alpha virt. eigenvalues --    0.47357   0.47610   0.47838   0.47981   0.48159
 Alpha virt. eigenvalues --    0.48329   0.48430   0.48523   0.48648   0.48889
 Alpha virt. eigenvalues --    0.49120   0.49310   0.49408   0.49754   0.49851
 Alpha virt. eigenvalues --    0.50171   0.50256   0.50492   0.50883   0.51091
 Alpha virt. eigenvalues --    0.51610   0.51761   0.51915   0.52298   0.52435
 Alpha virt. eigenvalues --    0.52628   0.52854   0.53012   0.53120   0.53278
 Alpha virt. eigenvalues --    0.53533   0.53918   0.54158   0.54281   0.54430
 Alpha virt. eigenvalues --    0.55007   0.55448   0.55623   0.56339   0.56458
 Alpha virt. eigenvalues --    0.56781   0.57347   0.57550   0.58058   0.58289
 Alpha virt. eigenvalues --    0.58569   0.59076   0.59425   0.60243   0.60783
 Alpha virt. eigenvalues --    0.61466   0.62137   0.62639   0.62732   0.63133
 Alpha virt. eigenvalues --    0.64172   0.65273   0.65670   0.65751   0.65873
 Alpha virt. eigenvalues --    0.66131   0.66426   0.66943   0.67336   0.67410
 Alpha virt. eigenvalues --    0.67843   0.68170   0.69507   0.70160   0.71154
 Alpha virt. eigenvalues --    0.71404   0.71969   0.72157   0.72305   0.72315
 Alpha virt. eigenvalues --    0.72579   0.72733   0.73167   0.73291   0.73956
 Alpha virt. eigenvalues --    0.74582   0.74776   0.75394   0.75653   0.75783
 Alpha virt. eigenvalues --    0.76170   0.76666   0.76926   0.77178   0.77394
 Alpha virt. eigenvalues --    0.78151   0.78573   0.79030   0.79426   0.79544
 Alpha virt. eigenvalues --    0.79946   0.80252   0.80439   0.80720   0.81296
 Alpha virt. eigenvalues --    0.81521   0.81619   0.81990   0.82440   0.83126
 Alpha virt. eigenvalues --    0.83791   0.84178   0.84610   0.85477   0.86100
 Alpha virt. eigenvalues --    0.86973   0.87277   0.87923   0.88018   0.88582
 Alpha virt. eigenvalues --    0.88811   0.89039   0.89419   0.89493   0.90211
 Alpha virt. eigenvalues --    0.90480   0.90730   0.91164   0.91247   0.91600
 Alpha virt. eigenvalues --    0.92461   0.92872   0.93330   0.93874   0.94115
 Alpha virt. eigenvalues --    0.94290   0.94880   0.95614   0.95938   0.96541
 Alpha virt. eigenvalues --    0.96887   0.97071   0.97227   0.97791   0.97915
 Alpha virt. eigenvalues --    0.98163   0.98270   0.98456   0.98603   0.98741
 Alpha virt. eigenvalues --    0.98908   0.99424   1.00006   1.00028   1.00188
 Alpha virt. eigenvalues --    1.00807   1.01213   1.01466   1.01508   1.01662
 Alpha virt. eigenvalues --    1.01977   1.02135   1.02323   1.02491   1.02663
 Alpha virt. eigenvalues --    1.02883   1.03407   1.03495   1.03638   1.04037
 Alpha virt. eigenvalues --    1.04245   1.04327   1.04455   1.04722   1.04862
 Alpha virt. eigenvalues --    1.05038   1.05218   1.05247   1.05418   1.05817
 Alpha virt. eigenvalues --    1.05925   1.06353   1.06865   1.07046   1.07152
 Alpha virt. eigenvalues --    1.07500   1.07950   1.08698   1.08861   1.09163
 Alpha virt. eigenvalues --    1.09280   1.09735   1.09943   1.10029   1.10200
 Alpha virt. eigenvalues --    1.10715   1.10845   1.10898   1.10976   1.11213
 Alpha virt. eigenvalues --    1.11436   1.11618   1.11726   1.11950   1.12362
 Alpha virt. eigenvalues --    1.12687   1.13408   1.13689   1.14082   1.14782
 Alpha virt. eigenvalues --    1.15244   1.15746   1.16179   1.16261   1.16651
 Alpha virt. eigenvalues --    1.17162   1.17564   1.17939   1.18543   1.18973
 Alpha virt. eigenvalues --    1.20064   1.20496   1.20898   1.21083   1.21168
 Alpha virt. eigenvalues --    1.21336   1.21725   1.22008   1.22804   1.23538
 Alpha virt. eigenvalues --    1.24932   1.25764   1.26010   1.26358   1.26622
 Alpha virt. eigenvalues --    1.27102   1.27843   1.28272   1.28580   1.28603
 Alpha virt. eigenvalues --    1.28781   1.28870   1.29061   1.29244   1.29980
 Alpha virt. eigenvalues --    1.30117   1.30317   1.30532   1.30695   1.30709
 Alpha virt. eigenvalues --    1.30997   1.31948   1.32203   1.32765   1.32959
 Alpha virt. eigenvalues --    1.33139   1.33431   1.33644   1.33821   1.34040
 Alpha virt. eigenvalues --    1.34192   1.34389   1.34460   1.34541   1.34689
 Alpha virt. eigenvalues --    1.35011   1.35074   1.35616   1.35830   1.36025
 Alpha virt. eigenvalues --    1.36173   1.36349   1.36621   1.36748   1.36775
 Alpha virt. eigenvalues --    1.37018   1.37291   1.37595   1.37616   1.37783
 Alpha virt. eigenvalues --    1.37964   1.38309   1.38524   1.38758   1.38925
 Alpha virt. eigenvalues --    1.39260   1.39583   1.39683   1.39788   1.39952
 Alpha virt. eigenvalues --    1.40354   1.40444   1.40553   1.40746   1.40941
 Alpha virt. eigenvalues --    1.41110   1.41151   1.41420   1.41845   1.41967
 Alpha virt. eigenvalues --    1.42385   1.42653   1.43095   1.43186   1.43306
 Alpha virt. eigenvalues --    1.43592   1.43911   1.44297   1.44376   1.45509
 Alpha virt. eigenvalues --    1.46071   1.46366   1.47563   1.47579   1.47735
 Alpha virt. eigenvalues --    1.48187   1.48306   1.49245   1.49778   1.49965
 Alpha virt. eigenvalues --    1.50320   1.50855   1.51320   1.51745   1.52954
 Alpha virt. eigenvalues --    1.53323   1.55423   1.55708   1.55761   1.55817
 Alpha virt. eigenvalues --    1.55999   1.56243   1.56569   1.56605   1.57175
 Alpha virt. eigenvalues --    1.57254   1.57825   1.58413   1.58898   1.59081
 Alpha virt. eigenvalues --    1.59487   1.59980   1.60165   1.60419   1.60503
 Alpha virt. eigenvalues --    1.60588   1.61094   1.61989   1.62160   1.62720
 Alpha virt. eigenvalues --    1.63886   1.64240   1.64918   1.65442   1.66980
 Alpha virt. eigenvalues --    1.67690   1.68046   1.69600   1.70579   1.70854
 Alpha virt. eigenvalues --    1.71313   1.71649   1.72418   1.73452   1.73975
 Alpha virt. eigenvalues --    1.74946   1.75111   1.75238   1.75654   1.76406
 Alpha virt. eigenvalues --    1.76487   1.76650   1.77176   1.77411   1.78435
 Alpha virt. eigenvalues --    1.78553   1.78818   1.78960   1.80149   1.80327
 Alpha virt. eigenvalues --    1.81269   1.81376   1.81955   1.82224   1.82876
 Alpha virt. eigenvalues --    1.82906   1.83314   1.83733   1.83909   1.84427
 Alpha virt. eigenvalues --    1.85109   1.85348   1.85570   1.85924   1.86192
 Alpha virt. eigenvalues --    1.86527   1.87035   1.87371   1.88080   1.88432
 Alpha virt. eigenvalues --    1.89268   1.89884   1.90186   1.90231   1.90486
 Alpha virt. eigenvalues --    1.90825   1.91219   1.91433   1.92339   1.93361
 Alpha virt. eigenvalues --    1.94798   1.95146   1.95294   1.95453   1.95928
 Alpha virt. eigenvalues --    1.98116   1.99100   1.99341   1.99423   2.04417
 Alpha virt. eigenvalues --    2.06283   2.06680   2.08099   2.08232   2.08549
 Alpha virt. eigenvalues --    2.08696   2.09110   2.09520   2.10085   2.10707
 Alpha virt. eigenvalues --    2.11336   2.11876   2.12443   2.14763   2.15501
 Alpha virt. eigenvalues --    2.15932   2.16667   2.17144   2.17342   2.17725
 Alpha virt. eigenvalues --    2.20030   2.20413   2.20500   2.20800   2.20962
 Alpha virt. eigenvalues --    2.21126   2.22076   2.23847   2.25192   2.25585
 Alpha virt. eigenvalues --    2.26121   2.26364   2.26948   2.28047   2.28473
 Alpha virt. eigenvalues --    2.28754   2.29359   2.29786   2.33457   2.35482
 Alpha virt. eigenvalues --    2.36554   2.39059   2.40797   2.40990   2.43493
 Alpha virt. eigenvalues --    2.44175   2.50623   2.51769   2.57269   2.64843
 Alpha virt. eigenvalues --    2.64895   2.65057   2.65826   2.66082   2.66537
 Alpha virt. eigenvalues --    2.66762   2.66815   2.66899   2.67004   2.67017
 Alpha virt. eigenvalues --    2.67100   2.67186   2.67302   2.67341   2.67371
 Alpha virt. eigenvalues --    2.67647   2.67676   2.67849   2.67876   2.67935
 Alpha virt. eigenvalues --    2.68763   2.68930   2.69193   2.69319   2.70011
 Alpha virt. eigenvalues --    2.70104   2.70186   2.70382   2.70510   2.70649
 Alpha virt. eigenvalues --    2.70696   2.71321   2.71455   2.71490   2.71544
 Alpha virt. eigenvalues --    2.71654   2.71853   2.72458   2.72685   2.72877
 Alpha virt. eigenvalues --    2.72976   2.73071   2.73171   2.73269   2.73307
 Alpha virt. eigenvalues --    2.73397   2.73662   2.73797   2.73849   2.73997
 Alpha virt. eigenvalues --    2.74071   2.74186   2.74353   2.74557   2.74698
 Alpha virt. eigenvalues --    2.74769   2.74912   2.75090   2.75588   2.76041
 Alpha virt. eigenvalues --    2.76147   2.76236   2.76398   2.76708   2.76897
 Alpha virt. eigenvalues --    2.76991   2.77054   2.77091   2.78292   2.78416
 Alpha virt. eigenvalues --    2.78617   2.78758   2.79885   2.80155   2.80264
 Alpha virt. eigenvalues --    2.81028   2.81576   2.81624   2.81862   2.82112
 Alpha virt. eigenvalues --    2.82160   2.82714   2.83020   2.83272   2.83681
 Alpha virt. eigenvalues --    2.83777   2.83923   2.84029   2.84197   2.84980
 Alpha virt. eigenvalues --    2.85503   2.86048   2.86108   2.86444   2.86517
 Alpha virt. eigenvalues --    2.86626   2.86715   2.86832   2.87749   2.88241
 Alpha virt. eigenvalues --    2.88503   2.88726   2.89507   2.89553   2.89653
 Alpha virt. eigenvalues --    2.89831   2.89849   2.89995   2.90289   2.90366
 Alpha virt. eigenvalues --    2.90436   2.91595   2.91763   2.91835   2.91964
 Alpha virt. eigenvalues --    2.92240   2.92433   2.92676   2.92983   2.93112
 Alpha virt. eigenvalues --    2.93246   2.93474   2.93666   2.93891   2.94121
 Alpha virt. eigenvalues --    2.94176   2.95063   2.95271   2.95447   2.95717
 Alpha virt. eigenvalues --    2.95826   2.95907   2.96371   2.96563   2.96678
 Alpha virt. eigenvalues --    2.96729   2.96876   2.96927   2.97133   2.97428
 Alpha virt. eigenvalues --    2.97545   2.97690   2.97894   2.98311   2.99059
 Alpha virt. eigenvalues --    2.99267   2.99593   2.99746   2.99846   3.00074
 Alpha virt. eigenvalues --    3.00325   3.00519   3.01167   3.01347   3.01630
 Alpha virt. eigenvalues --    3.02779   3.03279   3.03406   3.03778   3.04702
 Alpha virt. eigenvalues --    3.06120   3.06316   3.06732   3.11033   3.11209
 Alpha virt. eigenvalues --    3.11299   3.11383   3.12040   3.12405   3.13579
 Alpha virt. eigenvalues --    3.13679   3.13817   3.16788   3.19987   3.21682
 Alpha virt. eigenvalues --    3.21848   3.23850   3.32520   3.40473   3.40944
 Alpha virt. eigenvalues --    3.41459   3.42304   3.44070   3.44184   3.45173
 Alpha virt. eigenvalues --    3.45528   3.45671   3.46683   3.46782   3.47258
 Alpha virt. eigenvalues --    3.48464   3.50727   3.51424   3.51778   3.53103
 Alpha virt. eigenvalues --    3.53298   3.53887   3.54325   3.54735   3.54899
 Alpha virt. eigenvalues --    3.55008   3.55032   3.55227   3.55967   3.57211
 Alpha virt. eigenvalues --    3.57348   3.57839   3.59128   3.59365   3.59920
 Alpha virt. eigenvalues --    3.60417   3.60962   3.61332   3.61639   3.62146
 Alpha virt. eigenvalues --    3.69701   3.74788  68.64691  68.65673  68.66802
 Alpha virt. eigenvalues --   68.68982  68.72737  68.73914  68.81605  68.82550
 Alpha virt. eigenvalues --   68.83057  68.85886  68.87028  68.88093 576.23115
 Alpha virt. eigenvalues --  576.24074 576.25181 576.27310 576.31078 576.32241
 Alpha virt. eigenvalues --  576.39784 576.40705 576.41198 576.43931 576.45045
 Alpha virt. eigenvalues --  576.46103
          Condensed to atoms (all electrons):
 Mulliken charges:
               1
     1  Cl  -0.896983
     2  C   -0.082252
     3  C    0.047629
     4  C   -0.081539
     5  C   -0.034629
     6  C   -0.033018
     7  C   -0.048553
     8  H    0.028713
     9  H    0.029398
    10  H    0.041256
    11  H    0.037279
    12  H    0.039433
    13  C   -0.128114
    14  C    0.035719
    15  H    0.019328
    16  H    0.035527
    17  H    0.028541
    18  O   -0.661245
    19  O   -0.659530
    20  O   -0.654661
    21  O   -0.661883
    22  W    1.729070
    23  W    1.669549
    24  W    1.680834
    25  W    1.691915
    26  W    1.672221
    27  W    1.724405
    28  W    1.613620
    29  W    1.681265
    30  O   -0.320398
    31  O   -0.365539
    32  O   -0.366189
    33  O   -0.357655
    34  O   -0.661440
    35  O   -0.669396
    36  O   -0.659234
    37  O   -0.661522
    38  O   -0.366592
    39  O   -0.366341
    40  O   -0.298831
    41  O   -0.364715
    42  O   -0.668658
    43  O   -0.661895
    44  O   -0.657503
    45  O   -0.664922
    46  O   -0.366883
    47  O   -0.320384
    48  O   -0.359913
    49  O   -0.364058
    50  W    1.668450
    51  W    1.673839
    52  W    1.682103
    53  W    1.680637
    54  O   -0.722747
    55  O   -0.705103
    56  O   -0.723727
    57  O   -0.721338
    58  O   -0.703017
    59  O   -0.724202
    60  O   -0.722961
    61  O   -0.718098
    62  O   -0.722837
    63  O   -0.704860
    64  O   -0.724015
    65  O   -0.724665
    66  O   -0.800669
    67  O   -0.799901
    68  O   -0.797437
    69  O   -0.807661
    70  K    0.865470
    71  K    0.862420
    72  K    0.862255
    73  V    1.186837
 Sum of Mulliken charges =  -1.00000
 Mulliken charges with hydrogens summed into heavy atoms:
               1
     1  Cl  -0.896983
     2  C   -0.053538
     3  C    0.047629
     4  C   -0.052142
     5  C    0.006626
     6  C    0.004261
     7  C   -0.009120
    13  C   -0.108786
    14  C    0.099787
    18  O   -0.661245
    19  O   -0.659530
    20  O   -0.654661
    21  O   -0.661883
    22  W    1.729070
    23  W    1.669549
    24  W    1.680834
    25  W    1.691915
    26  W    1.672221
    27  W    1.724405
    28  W    1.613620
    29  W    1.681265
    30  O   -0.320398
    31  O   -0.365539
    32  O   -0.366189
    33  O   -0.357655
    34  O   -0.661440
    35  O   -0.669396
    36  O   -0.659234
    37  O   -0.661522
    38  O   -0.366592
    39  O   -0.366341
    40  O   -0.298831
    41  O   -0.364715
    42  O   -0.668658
    43  O   -0.661895
    44  O   -0.657503
    45  O   -0.664922
    46  O   -0.366883
    47  O   -0.320384
    48  O   -0.359913
    49  O   -0.364058
    50  W    1.668450
    51  W    1.673839
    52  W    1.682103
    53  W    1.680637
    54  O   -0.722747
    55  O   -0.705103
    56  O   -0.723727
    57  O   -0.721338
    58  O   -0.703017
    59  O   -0.724202
    60  O   -0.722961
    61  O   -0.718098
    62  O   -0.722837
    63  O   -0.704860
    64  O   -0.724015
    65  O   -0.724665
    66  O   -0.800669
    67  O   -0.799901
    68  O   -0.797437
    69  O   -0.807661
    70  K    0.865470
    71  K    0.862420
    72  K    0.862255
    73  V    1.186837
 Electronic spatial extent (au):  <R**2>=         317398.1378
 Charge=             -1.0000 electrons
 Dipole moment (field-independent basis, Debye):
    X=             50.2204    Y=            -51.4522    Z=            -39.0126  Tot=             81.8010
 Quadrupole moment (field-independent basis, Debye-Ang):
   XX=          -1043.6913   YY=           -888.5625   ZZ=           -921.3639
   XY=            449.4346   XZ=            450.8825   YZ=           -480.0716
 Traceless Quadrupole moment (field-independent basis, Debye-Ang):
   XX=            -92.4854   YY=             62.6434   ZZ=             29.8420
   XY=            449.4346   XZ=            450.8825   YZ=           -480.0716
 Octapole moment (field-independent basis, Debye-Ang**2):
  XXX=          13234.1933  YYY=          -1084.6150  ZZZ=         -19262.6884  XYY=           6056.5743
  XXY=          -3573.0301  XXZ=          -9318.8505  XZZ=           7273.4610  YZZ=          -4192.2002
  YYZ=          -9048.7137  XYZ=           4747.1389
 Hexadecapole moment (field-independent basis, Debye-Ang**3):
 XXXX=        -156321.6815 YYYY=         -54326.7985 ZZZZ=        -348216.6730 XXXY=          35955.5167
 XXXZ=         120865.8436 YYYX=          20939.5286 YYYZ=         -12929.4886 ZZZX=         127070.1197
 ZZZY=         -35771.7914 XXYY=         -55461.1133 XXZZ=        -106851.7508 YYZZ=        -100004.3896
 XXYZ=         -41449.0040 YYXZ=          61432.7359 ZZXY=          49847.6027
 N-N= 2.095631882905D+04 E-N=-5.899687340893D+04  KE= 6.765170554581D+03
   1 Symmetry operations used in ECPInt.
 ECPInt:  NShTT=  127765 NPrTT=  468030 LenC2=   96412 LenP2D=  220595.
 LDataN:  DoStor=T MaxTD1= 9 Len=  602
 D1PCM: PCM CHGder 1st derivatives, ID1Alg=3 FixD1E=F DoIter=F DoCFld=F I1PDM=0.
 Calling FoFJK, ICntrl=      2127 FMM=T ISym2X=0 I1Cent= 0 IOpClX= 0 NMat=1 NMatS=1 NMatT=0.
 Defaulting to unpruned grid for atomic number  74.
 Defaulting to unpruned grid for atomic number  74.
 Defaulting to unpruned grid for atomic number  74.
 Defaulting to unpruned grid for atomic number  74.
 Defaulting to unpruned grid for atomic number  74.
 Defaulting to unpruned grid for atomic number  74.
 Defaulting to unpruned grid for atomic number  74.
 Defaulting to unpruned grid for atomic number  74.
 Defaulting to unpruned grid for atomic number  74.
 Defaulting to unpruned grid for atomic number  74.
 Defaulting to unpruned grid for atomic number  74.
 Defaulting to unpruned grid for atomic number  74.
 Defaulting to unpruned grid for atomic number  74.
 Defaulting to unpruned grid for atomic number  74.
 Defaulting to unpruned grid for atomic number  74.
 Defaulting to unpruned grid for atomic number  74.
 Defaulting to unpruned grid for atomic number  74.
 Defaulting to unpruned grid for atomic number  74.
 Defaulting to unpruned grid for atomic number  74.
 Defaulting to unpruned grid for atomic number  74.
 Defaulting to unpruned grid for atomic number  74.
 Defaulting to unpruned grid for atomic number  74.
 Defaulting to unpruned grid for atomic number  74.
 Defaulting to unpruned grid for atomic number  74.
 Defaulting to unpruned grid for atomic number  74.
 Defaulting to unpruned grid for atomic number  74.
 Defaulting to unpruned grid for atomic number  74.
 Defaulting to unpruned grid for atomic number  74.
 Defaulting to unpruned grid for atomic number  74.
 Defaulting to unpruned grid for atomic number  74.
 Defaulting to unpruned grid for atomic number  74.
 Defaulting to unpruned grid for atomic number  74.
 Defaulting to unpruned grid for atomic number  74.
 Defaulting to unpruned grid for atomic number  74.
 Defaulting to unpruned grid for atomic number  74.
 Defaulting to unpruned grid for atomic number  74.
 Defaulting to unpruned grid for atomic number  74.
 Defaulting to unpruned grid for atomic number  74.
 Defaulting to unpruned grid for atomic number  74.
 Defaulting to unpruned grid for atomic number  74.
 Defaulting to unpruned grid for atomic number  74.
 Defaulting to unpruned grid for atomic number  74.
 Defaulting to unpruned grid for atomic number  74.
 Defaulting to unpruned grid for atomic number  74.
 Defaulting to unpruned grid for atomic number  74.
 Defaulting to unpruned grid for atomic number  74.
 Defaulting to unpruned grid for atomic number  74.
 Defaulting to unpruned grid for atomic number  74.
 Defaulting to unpruned grid for atomic number  74.
 Defaulting to unpruned grid for atomic number  74.
 Defaulting to unpruned grid for atomic number  74.
 Defaulting to unpruned grid for atomic number  74.
 Defaulting to unpruned grid for atomic number  74.
 Defaulting to unpruned grid for atomic number  74.
 Defaulting to unpruned grid for atomic number  74.
 Defaulting to unpruned grid for atomic number  74.
 -------------------------------------------------------------------
 Center     Atomic                   Forces (Hartrees/Bohr)
 Number     Number              X              Y              Z
 -------------------------------------------------------------------
      1       17          -0.002533211    0.007822508    0.002396128
      2        6          -0.001414174   -0.000592804   -0.001508860
      3        6          -0.000787812   -0.001599421    0.003552704
      4        6           0.001451374    0.001943641    0.000362057
      5        6           0.000902045   -0.000125453    0.001372112
      6        6          -0.000384127   -0.000131440    0.000789782
      7        6          -0.000869732   -0.001356793    0.000573663
      8        1           0.000226449   -0.000002204   -0.000145605
      9        1           0.000104996    0.000062794   -0.000171340
     10        1           0.000321526   -0.000632693   -0.000237185
     11        1          -0.000464993    0.000145295    0.000232086
     12        1           0.000433784   -0.000502248    0.000217019
     13        6           0.007789414    0.010134006   -0.006986249
     14        6          -0.002758814   -0.016465834   -0.000577617
     15        1          -0.001060768    0.000599082    0.000481642
     16        1          -0.000333160    0.000126896    0.000124708
     17        1          -0.001754232    0.001473066   -0.000608881
     18        8          -0.003057681    0.000651192    0.000837305
     19        8           0.002995242   -0.000851095    0.000873039
     20        8           0.002467522   -0.002678920   -0.000660894
     21        8          -0.002256582    0.001934881   -0.000875549
     22       74           0.001527321    0.009685698   -0.009504703
     23       74          -0.002296483   -0.009255438   -0.009483324
     24       74           0.006113588    0.007698133    0.009592539
     25       74          -0.006552345   -0.006799482    0.009632974
     26       74           0.007836073   -0.007193343   -0.009901443
     27       74          -0.007987526    0.007810792   -0.009772730
     28       74          -0.011173155    0.002981288    0.010064756
     29       74           0.010571952   -0.001923023    0.009992821
     30        8          -0.000800699   -0.003312543    0.002685293
     31        8           0.000348612    0.003159484    0.002981431
     32        8          -0.002183153   -0.002160638   -0.002902688
     33        8           0.002244641    0.002147204   -0.003199117
     34        8          -0.000931013   -0.000819429    0.003110708
     35        8           0.001257613    0.000297610    0.003256073
     36        8           0.000407056   -0.001262676   -0.003030762
     37        8          -0.000147641    0.001057453   -0.003180947
     38        8          -0.004309005   -0.001429570   -0.001142236
     39        8           0.004405126    0.001581193   -0.001109397
     40        8           0.002360241   -0.005553061    0.000840306
     41        8          -0.001133907    0.004374461    0.000980994
     42        8          -0.002027789   -0.002577408    0.001238794
     43        8           0.002223420    0.002413638    0.000924357
     44        8          -0.000384058   -0.003504271   -0.000581874
     45        8           0.000874250    0.003057413   -0.001192926
     46        8          -0.002319040    0.002439054    0.003099191
     47        8           0.002528904   -0.001879747    0.003329707
     48        8           0.003721871   -0.000853617   -0.003603645
     49        8          -0.003337047    0.000346976   -0.003322795
     50       74           0.013321093    0.004701527    0.002738578
     51       74          -0.014007766   -0.003875320    0.003155513
     52       74          -0.005088452    0.014964458   -0.003031787
     53       74           0.004321581   -0.013554508   -0.002618665
     54        8          -0.000539468    0.001510447    0.002160783
     55        8           0.000657560   -0.001695826    0.002032489
     56        8           0.001896605   -0.000015299   -0.002396347
     57        8          -0.001538840   -0.000591527   -0.001903319
     58        8           0.000156619   -0.002417442    0.001079439
     59        8           0.000386006    0.002465205    0.001588795
     60        8          -0.001653974   -0.001791666   -0.001478897
     61        8           0.001795105    0.001467824   -0.001595921
     62        8          -0.001018121    0.002020572    0.000910039
     63        8           0.001049040   -0.002400988    0.000565566
     64        8           0.002240552   -0.000050231   -0.001126751
     65        8          -0.002561626   -0.000354188   -0.000894511
     66        8          -0.025404916   -0.004677122    0.016193620
     67        8           0.025637322    0.005413100    0.016118202
     68        8           0.010598767   -0.024399905   -0.016308281
     69        8          -0.010442236    0.023292949   -0.016457002
     70       19           0.000256347   -0.000794777   -0.000604463
     71       19           0.001309036    0.000414091    0.001067747
     72       19          -0.000857812   -0.000281754    0.000597113
     73       23          -0.000367297    0.000169773    0.000366638
 -------------------------------------------------------------------
 Cartesian Forces:  Max     0.025637322 RMS     0.005812307

 GradGradGradGradGradGradGradGradGradGradGradGradGradGradGradGradGradGrad
 Berny optimization.
 Search for a local minimum.
 Step number   1 out of a maximum of    2
 All quantities printed in internal units (Hartrees-Bohrs-Radians)
 Second derivative matrix not updated -- first step.
 ITU=  0
     Eigenvalues ---    0.00000   0.00000   0.00000   0.00010   0.00094
     Eigenvalues ---    0.00095   0.00254   0.00556   0.00622   0.01645
     Eigenvalues ---    0.01949   0.02899   0.02925   0.03188   0.03403
     Eigenvalues ---    0.03426   0.03710   0.03716   0.04157   0.04485
     Eigenvalues ---    0.04582   0.04587   0.04598   0.04819   0.04833
     Eigenvalues ---    0.04992   0.05328   0.05532   0.05548   0.06343
     Eigenvalues ---    0.06380   0.06534   0.06783   0.06862   0.07047
     Eigenvalues ---    0.07308   0.07341   0.07615   0.08311   0.08358
     Eigenvalues ---    0.08688   0.08698   0.08881   0.08905   0.09746
     Eigenvalues ---    0.09855   0.10040   0.10372   0.10414   0.10509
     Eigenvalues ---    0.10751   0.10878   0.11482   0.11529   0.11984
     Eigenvalues ---    0.12017   0.12081   0.12496   0.12540   0.12582
     Eigenvalues ---    0.12632   0.12729   0.12833   0.12995   0.13038
     Eigenvalues ---    0.13802   0.13909   0.14210   0.14377   0.14699
     Eigenvalues ---    0.16697   0.16728   0.16910   0.17163   0.17570
     Eigenvalues ---    0.17659   0.18520   0.19709   0.19848   0.20147
     Eigenvalues ---    0.20732   0.21066   0.21719   0.21769   0.22023
     Eigenvalues ---    0.22382   0.23050   0.23308   0.23785   0.23796
     Eigenvalues ---    0.24518   0.24608   0.24797   0.25590   0.25717
     Eigenvalues ---    0.26098   0.26217   0.27485   0.27570   0.27755
     Eigenvalues ---    0.28285   0.28397   0.28806   0.29513   0.29970
     Eigenvalues ---    0.30520   0.30605   0.30729   0.30756   0.30867
     Eigenvalues ---    0.30955   0.31167   0.31310   0.31569   0.32377
     Eigenvalues ---    0.32523   0.32559   0.32690   0.32901   0.33512
     Eigenvalues ---    0.33594   0.34956   0.35429   0.35697   0.36697
     Eigenvalues ---    0.37391   0.37503   0.37605   0.38012   0.38388
     Eigenvalues ---    0.38676   0.39197   0.40142   0.40193   0.41272
     Eigenvalues ---    0.42197   0.42262   0.43558   0.43733   0.44780
     Eigenvalues ---    0.45349   0.45592   0.45756   0.47151   0.48068
     Eigenvalues ---    0.48309   0.48761   0.48786   0.49511   0.49810
     Eigenvalues ---    0.49847   0.50588   0.51351   0.51434   0.51918
     Eigenvalues ---    0.52919   0.53426   0.54750   0.58917   0.64352
     Eigenvalues ---    0.67541   0.76591   0.81475   0.82722   0.96894
     Eigenvalues ---    0.97275   0.98747   0.99213   1.02201   1.04447
     Eigenvalues ---    1.07143   1.11555   1.12037   1.12299   1.16006
     Eigenvalues ---    1.19401   1.19819   1.20558   1.22656   1.22989
     Eigenvalues ---    1.23314   1.26283   1.26808   1.26904   1.27150
     Eigenvalues ---    1.27657   1.28988   1.29146   1.44898   1.45348
     Eigenvalues ---    1.45450   1.47750   1.51362   1.51500   1.51831
     Eigenvalues ---    1.52505   1.55419   1.55505   1.56352   1.58101
     Eigenvalues ---    1.58330   1.59420   1.61362   1.64302   1.67174
     Eigenvalues ---    1.77579   1.80816   1.82896   1.83459   1.84119
     Eigenvalues ---    1.92230   1.97030   2.70211
 Eigenvalue     1 is   2.22D-16 Eigenvector:
                          Y16       Y14       Y15       Y17       Y13
   1                    0.17440   0.17440   0.17440   0.17440   0.17440
                          Y3        Y9        Y8        Y4        Y2
   1                    0.17440   0.17440   0.17440   0.17440   0.17440
 Eigenvalue     2 is   2.52D-07 Eigenvector:
                          Y16       X16       X11       Y11       Y15
   1                    0.31505  -0.27080   0.26668  -0.24049   0.23340
                          Y14       Z11       X14       Y17       X6
   1                    0.22993  -0.19771  -0.19008   0.18755   0.18490
 Eigenvalue     3 is   2.31D-06 Eigenvector:
                          X9        X10       Y12       Y9        X12
   1                    0.33133   0.29585   0.26691  -0.24762  -0.24641
                          Y8        Y10       X15       X8        X4
   1                    0.24243  -0.22394   0.21591  -0.21419   0.20518
 Quadratic step=2.692D+01 exceeds max=3.000D-01 adjusted using Lamda=-1.122D-02.
 Angle between NR and scaled steps=  36.55 degrees.
 Angle between quadratic step and forces=  66.88 degrees.
 Linear search not attempted -- first point.
 B after Tr=    -0.000236    0.007435    0.001731
         Rot=    1.000000   -0.000165    0.000012    0.000093 Ang=  -0.02 deg.
 Variable       Old X    -DE/DX   Delta X   Delta X   Delta X     New X
                                 (Linear)    (Quad)   (Total)
    X1      -18.33159  -0.00253   0.00000  -0.00244  -0.00025 -18.33184
    Y1       15.64715   0.00782   0.00000   0.00787   0.01216  15.65932
    Z1       19.91591   0.00240   0.00000   0.00250   0.00893  19.92485
    X2      -15.86555  -0.00141   0.00000   0.00074   0.00144 -15.86411
    Y2        8.11958  -0.00059   0.00000  -0.01870  -0.01589   8.10369
    Z2       23.05020  -0.00151   0.00000  -0.00105   0.00296  23.05315
    X3      -17.39688  -0.00079   0.00000   0.00861   0.00925 -17.38763
    Y3        7.50835  -0.00160   0.00000  -0.02486  -0.02109   7.48726
    Z3       20.96227   0.00355   0.00000  -0.00252   0.00125  20.96352
    X4      -19.10392   0.00145   0.00000   0.00241   0.00267 -19.10125
    Y4        5.48431   0.00194   0.00000  -0.01091  -0.00690   5.47741
    Z4       21.21445   0.00036   0.00000   0.01453   0.01759  21.23204
    X5      -19.29361   0.00090   0.00000  -0.00132  -0.00136 -19.29498
    Y5        4.14307  -0.00013   0.00000  -0.00664  -0.00334   4.13973
    Z5       23.46905   0.00137   0.00000   0.01895   0.02156  23.49061
    X6      -17.75883  -0.00038   0.00000  -0.01222  -0.01220 -17.77103
    Y6        4.77370  -0.00013   0.00000  -0.00008   0.00225   4.77595
    Z6       25.51932   0.00079   0.00000   0.02260   0.02546  25.54479
    X7      -16.04342  -0.00087   0.00000  -0.00594  -0.00554 -16.04897
    Y7        6.76715  -0.00136   0.00000  -0.00867  -0.00657   6.76058
    Z7       25.29636   0.00057   0.00000   0.00911   0.01267  25.30903
    X8      -14.52248   0.00023   0.00000   0.00961   0.01060 -14.51187
    Y8        9.68097  -0.00000   0.00000  -0.02566  -0.02307   9.65790
    Z8       22.92388  -0.00015   0.00000  -0.00803  -0.00349  22.92040
    X9      -20.31463   0.00010   0.00000   0.00701   0.00722 -20.30741
    Y9        4.98172   0.00006   0.00000  -0.01579  -0.01104   4.97069
    Z9       19.61616  -0.00017   0.00000   0.01206   0.01493  19.63108
   X10      -20.65380   0.00032   0.00000   0.00587   0.00553 -20.64826
   Y10        2.59798  -0.00063   0.00000  -0.01416  -0.01066   2.58732
   Z10       23.63371  -0.00024   0.00000   0.01257   0.01464  23.64835
   X11      -17.88069  -0.00046   0.00000  -0.02101  -0.02123 -17.90191
   Y11        3.70402   0.00015   0.00000   0.00932   0.01111   3.71512
   Z11       27.27978   0.00023   0.00000   0.02747   0.02998  27.30975
   X12      -14.84446   0.00043   0.00000   0.00223   0.00269 -14.84177
   Y12        7.28696  -0.00050   0.00000  -0.01165  -0.01031   7.27665
   Z12       26.89543   0.00022   0.00000   0.00505   0.00881  26.90424
   X13      -17.31842   0.00779   0.00000   0.03687   0.03783 -17.28059
   Y13        8.93947   0.01013   0.00000  -0.06863  -0.06408   8.87539
   Z13       18.59492  -0.00699   0.00000  -0.04092  -0.03670  18.55822
   X14      -15.95473  -0.00276   0.00000   0.05335   0.05471 -15.90002
   Y14       11.05503  -0.01647   0.00000  -0.11449  -0.11006  10.94497
   Z14       18.18406  -0.00058   0.00000  -0.07627  -0.07133  18.11273
   X15      -18.52865  -0.00106   0.00000  -0.00003   0.00084 -18.52781
   Y15        8.21983   0.00060   0.00000  -0.05558  -0.05031   8.16952
   Z15       17.07590   0.00048   0.00000  -0.01640  -0.01244  17.06346
   X16      -16.00390  -0.00033   0.00000   0.03706   0.03864 -15.96527
   Y16       12.01614   0.00013   0.00000  -0.11589  -0.11084  11.90530
   Z16       16.36255   0.00012   0.00000  -0.07595  -0.07070  16.29185
   X17      -14.64148  -0.00175   0.00000   0.01482   0.01629 -14.62518
   Y17       11.80907   0.00147   0.00000  -0.05834  -0.05460  11.75447
   Z17       19.58156  -0.00061   0.00000  -0.07154  -0.06630  19.51526
   X18       -1.84043  -0.00306   0.00000  -0.01735  -0.01858  -1.85901
   Y18       -3.45260   0.00065   0.00000   0.00420   0.00735  -3.44526
   Z18       14.08138   0.00084   0.00000   0.00939   0.00994  14.09133
   X19      -15.82109   0.00300   0.00000   0.01090   0.00985 -15.81124
   Y19       -2.49415  -0.00085   0.00000   0.00907   0.01481  -2.47935
   Z19       14.09647   0.00087   0.00000   0.01180   0.01232  14.10879
   X20      -13.23825   0.00247   0.00000   0.01076   0.01050 -13.22775
   Y20        2.51151  -0.00268   0.00000  -0.00755  -0.00418   2.50733
   Z20       19.82744  -0.00066   0.00000  -0.00472  -0.00249  19.82495
   X21       -4.39377  -0.00226   0.00000  -0.01024  -0.01252  -4.40629
   Y21       -8.31272   0.00193   0.00000   0.01336   0.01505  -8.29767
   Z21       19.94735  -0.00088   0.00000  -0.01055  -0.01166  19.93568
   X22       -6.37139   0.00153   0.00000  -0.00888  -0.00916  -6.38055
   Y22        1.35384   0.00969   0.00000   0.01500   0.01957   1.37342
   Z22       12.30476  -0.00950   0.00000  -0.00821  -0.00619  12.29858
   X23      -11.33370  -0.00230   0.00000   0.00365   0.00176 -11.33195
   Y23       -7.27362  -0.00926   0.00000   0.00065   0.00611  -7.26751
   Z23       12.43056  -0.00948   0.00000  -0.00504  -0.00598  12.42458
   X24       -6.75928   0.00611   0.00000   0.01338   0.01292  -6.74636
   Y24        1.66619   0.00770   0.00000   0.00007   0.00167   1.66787
   Z24       21.52831   0.00959   0.00000   0.01154   0.01365  21.54196
   X25      -10.90522  -0.00655   0.00000  -0.01434  -0.01648 -10.92170
   Y25       -7.36600  -0.00680   0.00000   0.00541   0.00775  -7.35825
   Z25       21.66362   0.00963   0.00000   0.00467   0.00371  21.66733
   X26       -4.63003   0.00784   0.00000  -0.00341  -0.00486  -4.63489
   Y26       -4.88850  -0.00719   0.00000  -0.00621  -0.00188  -4.89037
   Z26       12.03824  -0.00990   0.00000  -0.00479  -0.00478  12.03346
   X27      -13.03406  -0.00799   0.00000  -0.00504  -0.00576 -13.03982
   Y27       -1.03467   0.00781   0.00000   0.02338   0.02930  -1.00538
   Z27       11.99016  -0.00977   0.00000  -0.00316  -0.00208  11.98807
   X28      -12.80454  -0.01117   0.00000  -0.00929  -0.01016 -12.81470
   Y28       -0.51115   0.00298   0.00000  -0.00238   0.00023  -0.51092
   Z28       21.91311   0.01006   0.00000   0.00746   0.00871  21.92181
   X29       -4.83400   0.01057   0.00000   0.00893   0.00718  -4.82682
   Y29       -5.18674  -0.00192   0.00000   0.00761   0.00872  -5.17802
   Z29       21.97096   0.00999   0.00000   0.00550   0.00540  21.97637
   X30       -5.90646  -0.00080   0.00000   0.00462   0.00481  -5.90165
   Y30        3.61885  -0.00331   0.00000  -0.00015   0.00506   3.62392
   Z30       10.10778   0.00269   0.00000  -0.00934  -0.00657  10.10121
   X31      -11.60735   0.00035   0.00000  -0.00922  -0.01150 -11.61885
   Y31       -9.63538   0.00316   0.00000   0.00887   0.01509  -9.62030
   Z31       10.27345   0.00298   0.00000  -0.00114  -0.00287  10.27058
   X32       -5.00940  -0.00218   0.00000   0.00132   0.00111  -5.00829
   Y32        3.25923  -0.00216   0.00000   0.00334   0.00391   3.26313
   Z32       23.69912  -0.00290   0.00000   0.00793   0.01061  23.70973
   X33      -12.62521   0.00224   0.00000  -0.00267  -0.00516 -12.63036
   Y33       -8.90910   0.00215   0.00000   0.00044   0.00237  -8.90673
   Z33       23.88925  -0.00320   0.00000  -0.00101  -0.00253  23.88673
   X34       -5.02373  -0.00093   0.00000  -0.01117  -0.01198  -5.03571
   Y34       -1.71339  -0.00082   0.00000  -0.00051   0.00438  -1.70901
   Z34       10.55813   0.00311   0.00000   0.01172   0.01276  10.57089
   X35      -12.63783   0.00126   0.00000   0.00635   0.00505 -12.63278
   Y35       -4.31253   0.00030   0.00000   0.01541   0.02169  -4.29084
   Z35       10.62398   0.00326   0.00000   0.01380   0.01380  10.63778
   X36       -9.95604   0.00041   0.00000   0.00328   0.00266  -9.95339
   Y36        1.01589  -0.00126   0.00000  -0.00995  -0.00835   1.00754
   Z36       23.36271  -0.00303   0.00000  -0.00609  -0.00427  23.35844
   X37       -7.66431  -0.00015   0.00000  -0.00315  -0.00521  -7.66952
   Y37       -6.70838   0.00106   0.00000   0.01143   0.01258  -6.69581
   Z37       23.44789  -0.00318   0.00000  -0.01160  -0.01226  23.43563
   X38        0.65955  -0.00431   0.00000   0.00118   0.00049   0.66003
   Y38       -0.16050  -0.00143   0.00000   0.00059   0.00214  -0.15836
   Z38       17.51153  -0.00114   0.00000  -0.00172  -0.00003  17.51150
   X39      -18.32655   0.00441   0.00000  -0.00576  -0.00748 -18.33403
   Y39       -5.66961   0.00158   0.00000   0.01174   0.01679  -5.65282
   Z39       17.60746  -0.00111   0.00000  -0.00039  -0.00097  17.60649
   X40      -12.05543   0.00236   0.00000   0.01302   0.01358 -12.04185
   Y40        6.44225  -0.00555   0.00000   0.01046   0.01473   6.45698
   Z40       16.40464   0.00084   0.00000   0.00916   0.01271  16.41735
   X41       -5.61803  -0.00113   0.00000  -0.00089  -0.00382  -5.62185
   Y41      -12.27244   0.00437   0.00000   0.00426   0.00730 -12.26514
   Z41       16.52840   0.00098   0.00000  -0.00085  -0.00329  16.52511
   X42       -3.31328  -0.00203   0.00000  -0.01583  -0.01616  -3.32944
   Y42        1.37915  -0.00258   0.00000  -0.00165   0.00175   1.38090
   Z42       14.14756   0.00124   0.00000   0.00959   0.01169  14.15925
   X43      -14.36233   0.00222   0.00000   0.00969   0.00774 -14.35459
   Y43       -7.33311   0.00241   0.00000   0.01531   0.02072  -7.31239
   Z43       14.27128   0.00092   0.00000   0.00842   0.00739  14.27867
   X44       -8.46185  -0.00038   0.00000   0.00624   0.00629  -8.45556
   Y44        4.14388  -0.00350   0.00000  -0.01328  -0.01075   4.13314
   Z44       19.69637  -0.00058   0.00000   0.00045   0.00333  19.69971
   X45       -9.18905   0.00087   0.00000  -0.00666  -0.00923  -9.19828
   Y45       -9.90985   0.00306   0.00000   0.01829   0.02090  -9.88895
   Z45       19.87181  -0.00119   0.00000  -0.01033  -0.01209  19.85973
   X46       -3.07173  -0.00232   0.00000  -0.00113  -0.00284  -3.07457
   Y46       -6.65182   0.00244   0.00000   0.00619   0.01095  -6.64086
   Z46        9.85192   0.00310   0.00000  -0.00132  -0.00186   9.85007
   X47      -14.68485   0.00253   0.00000  -0.01064  -0.01103 -14.69588
   Y47        0.48477  -0.00188   0.00000   0.01190   0.01887   0.50364
   Z47        9.72266   0.00333   0.00000   0.00514   0.00667   9.72933
   X48      -15.09551   0.00372   0.00000  -0.00096  -0.00185 -15.09736
   Y48       -0.31642  -0.00085   0.00000   0.00495   0.00724  -0.30918
   Z48       24.15115  -0.00360   0.00000   0.00256   0.00381  24.15496
   X49       -2.51127  -0.00334   0.00000   0.00143  -0.00041  -2.51168
   Y49       -5.42903   0.00035   0.00000  -0.00491  -0.00496  -5.43399
   Z49       24.17493  -0.00332   0.00000   0.00019   0.00007  24.17500
   X50       -2.29959   0.01332   0.00000   0.00383   0.00298  -2.29661
   Y50       -1.11028   0.00470   0.00000   0.00763   0.00999  -1.10029
   Z50       16.70109   0.00274   0.00000   0.01187   0.01318  16.71428
   X51      -15.36809  -0.01401   0.00000  -0.00920  -0.01073 -15.37883
   Y51       -4.73956  -0.00388   0.00000   0.00516   0.00993  -4.72963
   Z51       16.77096   0.00316   0.00000   0.01260   0.01239  16.78335
   X52      -11.13182  -0.00509   0.00000   0.00249   0.00248 -11.12934
   Y52        3.47600   0.01496   0.00000   0.01530   0.01918   3.49518
   Z52       17.10557  -0.00303   0.00000  -0.00617  -0.00357  17.10200
   X53       -6.54378   0.00432   0.00000  -0.00306  -0.00545  -6.54923
   Y53       -9.29762  -0.01355   0.00000  -0.00230   0.00066  -9.29696
   Z53       17.30685  -0.00262   0.00000  -0.01204  -0.01353  17.29332
   X54       -7.97517  -0.00054   0.00000  -0.00093  -0.00255  -7.97772
   Y54       -5.90500   0.00151   0.00000  -0.00198   0.00317  -5.90183
   Z54       11.46026   0.00216   0.00000  -0.00566  -0.00607  11.45418
   X55       -9.68468   0.00066   0.00000  -0.00629  -0.00682  -9.69151
   Y55       -0.09984  -0.00170   0.00000   0.01736   0.02286  -0.07698
   Z55       11.37164   0.00203   0.00000  -0.00539  -0.00393  11.36772
   X56      -11.64466   0.00190   0.00000  -0.00948  -0.01099 -11.65565
   Y56       -3.82526  -0.00002   0.00000   0.00011   0.00230  -3.82297
   Z56       22.53499  -0.00240   0.00000   0.00562   0.00580  22.54079
   X57       -5.95796  -0.00154   0.00000   0.01005   0.00890  -5.94905
   Y57       -1.87852  -0.00059   0.00000   0.00379   0.00492  -1.87360
   Z57       22.52504  -0.00190   0.00000   0.01029   0.01126  22.53630
   X58       -8.20053   0.00016   0.00000  -0.00288  -0.00292  -8.20345
   Y58        2.98870  -0.00242   0.00000   0.01408   0.01816   3.00686
   Z58       14.83626   0.00108   0.00000  -0.00716  -0.00464  14.83161
   X59       -9.45120   0.00039   0.00000   0.00064  -0.00162  -9.45281
   Y59       -8.89118   0.00247   0.00000  -0.00029   0.00398  -8.88720
   Z59       14.96717   0.00159   0.00000  -0.00659  -0.00802  14.95915
   X60       -4.32125  -0.00165   0.00000   0.00960   0.00909  -4.31216
   Y60        1.04187  -0.00179   0.00000   0.00344   0.00541   1.04728
   Z60       19.03646  -0.00148   0.00000   0.01070   0.01267  19.04913
   X61      -13.32953   0.00180   0.00000  -0.01220  -0.01418 -13.34371
   Y61       -6.84634   0.00147   0.00000   0.00542   0.00903  -6.83731
   Z61       19.14739  -0.00160   0.00000   0.00600   0.00515  19.15254
   X62       -4.85442  -0.00102   0.00000  -0.00206  -0.00405  -4.85847
   Y62       -7.40057   0.00202   0.00000  -0.00235   0.00111  -7.39946
   Z62       14.83822   0.00091   0.00000  -0.00771  -0.00854  14.82969
   X63      -12.84097   0.00105   0.00000  -0.00119  -0.00151 -12.84248
   Y63        1.48144  -0.00240   0.00000   0.01727   0.02225   1.50369
   Z63       14.74082   0.00057   0.00000  -0.00429  -0.00238  14.73844
   X64      -14.75486   0.00224   0.00000  -0.00840  -0.00952 -14.76438
   Y64       -2.22813  -0.00005   0.00000   0.00336   0.00722  -2.22092
   Z64       19.19783  -0.00113   0.00000   0.00910   0.00974  19.20757
   X65       -2.90546  -0.00256   0.00000   0.00492   0.00355  -2.90191
   Y65       -3.57834  -0.00035   0.00000   0.00567   0.00733  -3.57102
   Z65       19.17978  -0.00089   0.00000   0.00763   0.00812  19.18789
   X66       -6.31826  -0.02540   0.00000  -0.04798  -0.04900  -6.36726
   Y66       -2.20720  -0.00468   0.00000  -0.00129   0.00234  -2.20486
   Z66       15.14377   0.01619   0.00000   0.02752   0.02837  15.17214
   X67      -11.34412   0.02564   0.00000   0.04160   0.04030 -11.30382
   Y67       -3.72056   0.00541   0.00000   0.01702   0.02156  -3.69901
   Z67       15.18562   0.01612   0.00000   0.02870   0.02893  15.21455
   X68       -9.62888   0.01060   0.00000   0.01989   0.01910  -9.60978
   Y68       -0.41506  -0.02440   0.00000  -0.03657  -0.03352  -0.44858
   Z68       18.79556  -0.01631   0.00000  -0.02475  -0.02340  18.77216
   X69       -7.99749  -0.01044   0.00000  -0.02167  -0.02337  -8.02086
   Y69       -5.39827   0.02329   0.00000   0.04400   0.04674  -5.35153
   Z69       18.85054  -0.01646   0.00000  -0.02682  -0.02705  18.82349
   X70       -6.09445   0.00026   0.00000  -0.00155  -0.00422  -6.09867
   Y70      -11.62207  -0.00079   0.00000  -0.00211   0.00295 -11.61912
   Z70       10.67404  -0.00060   0.00000  -0.00817  -0.01042  10.66362
   X71       -0.23625   0.00131   0.00000   0.01148   0.01066  -0.22559
   Y71       -0.05149   0.00041   0.00000   0.00320   0.00301  -0.04847
   Z71       23.28078   0.00107   0.00000   0.01051   0.01222  23.29299
   X72      -17.56854  -0.00086   0.00000  -0.01147  -0.01327 -17.58181
   Y72       -5.33033  -0.00028   0.00000   0.00352   0.00652  -5.32381
   Z72       23.42650   0.00060   0.00000   0.00738   0.00692  23.43343
   X73       -8.82614  -0.00037   0.00000  -0.00250  -0.00370  -8.82984
   Y73       -2.92742   0.00017   0.00000   0.00574   0.00923  -2.91819
   Z73       16.98884   0.00037   0.00000   0.00175   0.00230  16.99113
         Item               Value     Threshold  Converged?
 Maximum Force            0.025637     0.000450     NO 
 RMS     Force            0.005812     0.000300     NO 
 Maximum Displacement     0.110841     0.001800     NO 
 RMS     Displacement     0.020115     0.001200     NO 
 Predicted change in Energy=-5.501049D-03
 GradGradGradGradGradGradGradGradGradGradGradGradGradGradGradGradGradGrad

 Unable to Open any file for archive entry.
 1\1\GINC-X11P1N2\Force\RwB97XD\def2SVP\C8H8Cl1K3O40V1W12(1-)\MAYUMIAO\
 03-Jun-2024\0\\# def2svp wb97xd scrf=(smd,solvent=acetonitrile) g09def
 ault scf=(xqc,maxcycle=64) force guess=read nosymm\\Title Card\\-1,1\C
 l,-9.70065797,8.28011703,10.53904689\C,-8.39568939,4.29669907,12.19763
 911\C,-9.20603111,3.97324762,11.09275484\C,-10.10935723,2.90217388,11.
 22620116\C,-10.20974047,2.19241705,12.41928393\C,-9.39756751,2.5261318
 3,13.50424419\C,-8.48981444,3.58102197,13.38625954\H,-7.68496412,5.122
 95056,12.13079688\H,-10.75003716,2.6362134,10.38042339\H,-10.92951857,
 1.37479248,12.50642256\H,-9.46205171,1.9600808,14.43583539\H,-7.855349
 31,3.85609069,14.23244833\C,-9.1645129,4.73056285,9.84000598\C,-8.4428
 7961,5.85006907,9.6225897\H,-9.80493773,4.34974482,9.03617809\H,-8.468
 90081,6.35866772,8.65869039\H,-7.74793546,6.24909246,10.36211758\O,-0.
 97391603,-1.82703921,7.45154738\O,-8.37216146,-1.31984866,7.45953151\O
 ,-7.00538111,1.32903629,10.49223011\O,-2.32508531,-4.39890292,10.55568
 118\W,-3.3715948,0.71642361,6.51140027\W,-5.99753827,-3.84903352,6.577
 9697\W,-3.5768584,0.88171098,11.392289\W,-5.77079179,-3.89791768,11.46
 389292\W,-2.45010535,-2.58688016,6.37036323\W,-6.89732973,-0.54752557,
 6.34491727\W,-6.77587127,-0.27048699,11.59591723\W,-2.55804357,-2.7447
 0282,11.62653231\O,-3.12556343,1.91501419,5.34880515\O,-6.14234302,-5.
 09882541,5.43647514\O,-2.65086271,1.7247083,12.54103356\O,-6.68097171,
 -4.71449042,12.64164828\O,-2.65844411,-0.9066865,5.58712139\O,-6.68765
 353,-2.282093,5.62196549\O,-5.26851027,0.53758555,12.36301424\O,-4.055
 77708,-3.54992316,12.40808995\O,0.34901734,-0.08493463,9.26670045\O,-9
 .69799412,-3.00022962,9.31746525\O,-6.37945797,3.40909093,8.68095905\O
 ,-2.97293327,-6.49429458,8.74645206\O,-1.75331031,0.72981571,7.4865649
 9\O,-7.60021679,-3.88051546,7.552038\O,-4.47781896,2.19284931,10.42287
 158\O,-4.86263536,-5.24406712,10.51571141\O,-1.62548921,-3.51998931,5.
 21341392\O,-7.77088884,0.25652743,5.14501078\O,-7.9881997,-0.1674419,1
 2.7802362\O,-1.32890774,-2.8729176,12.79282321\W,-1.21689049,-0.587535
 57,8.83783792\W,-8.13244433,-2.50806946,8.87480895\W,-5.89070622,1.839
 41822,9.05187524\W,-3.46281992,-4.92008796,9.15839212\O,-4.22027655,-3
 .12479066,6.06450605\O,-5.1249141,-0.05283314,6.01761437\O,-6.16208746
 ,-2.02424182,11.92500166\O,-3.15281588,-0.99407009,11.919738\O,-4.3395
 3246,1.58155066,7.85100831\O,-5.001357,-4.70500971,7.92028518\O,-2.286
 70485,0.55133371,10.07366119\O,-7.05368471,-3.62292817,10.13235999\O,-
 2.5688493,-3.91621219,7.85204913\O,-6.79514693,0.78394463,7.80050461\O
 ,-7.80793584,-1.17907787,10.15905415\O,-1.53750305,-1.89357704,10.1495
 0165\O,-3.34347739,-1.16799939,8.01373641\O,-6.00305025,-1.96883776,8.
 03588201\O,-5.09538617,-0.21963934,9.94618264\O,-4.23209096,-2.8566401
 5,9.97527597\K,-3.22504366,-6.1501363,5.64845837\K,-0.1250176,-0.02724
 519,12.31965664\K,-9.29686877,-2.82069047,12.39677232\V,-4.67059104,-1
 .54912331,8.99010494\\Version=ES64L-G16RevC.01\HF=-7327.7022822\RMSD=1
 .861e-09\RMSF=5.812e-03\Dipole=10.0133881,-22.0378406,2.3425852\Quadru
 pole=-68.7606425,46.573835,22.1868075,334.1436118,335.2200796,-356.921
 4859\PG=C01 [X(C8H8Cl1K3O40V1W12)]\\@
 The archive entry for this job was punched.


 THOSE WITH THE GOLD MAKE THE RULES.

             -- PETER'S GOLDEN RULE
 Job cpu time:       0 days  9 hours 50 minutes 38.0 seconds.
 Elapsed time:       0 days  0 hours 11 minutes 12.7 seconds.
 File lengths (MBytes):  RWF=   1256 Int=      0 D2E=      0 Chk=    249 Scr=      1
 Normal termination of Gaussian 16 at Mon Jun  3 07:04:17 2024.
