 Entering Gaussian System, Link 0=g16
 Input=JOBS/74_A.gjf
 Output=JOBS/74_A.log
 Initial command:
 /data/app/gaussian/C01-avx2//g16/l1.exe "/tmp/Gau-723211.inp" -scrdir="/tmp/"
 Entering Link 1 = /data/app/gaussian/C01-avx2//g16/l1.exe PID=    723212.
  
 Copyright (c) 1988-2019, Gaussian, Inc.  All Rights Reserved.
  
 This is part of the Gaussian(R) 16 program.  It is based on
 the Gaussian(R) 09 system (copyright 2009, Gaussian, Inc.),
 the Gaussian(R) 03 system (copyright 2003, Gaussian, Inc.),
 the Gaussian(R) 98 system (copyright 1998, Gaussian, Inc.),
 the Gaussian(R) 94 system (copyright 1995, Gaussian, Inc.),
 the Gaussian 92(TM) system (copyright 1992, Gaussian, Inc.),
 the Gaussian 90(TM) system (copyright 1990, Gaussian, Inc.),
 the Gaussian 88(TM) system (copyright 1988, Gaussian, Inc.),
 the Gaussian 86(TM) system (copyright 1986, Carnegie Mellon
 University), and the Gaussian 82(TM) system (copyright 1983,
 Carnegie Mellon University). Gaussian is a federally registered
 trademark of Gaussian, Inc.
  
 This software contains proprietary and confidential information,
 including trade secrets, belonging to Gaussian, Inc.
  
 This software is provided under written license and may be
 used, copied, transmitted, or stored only in accord with that
 written license.
  
 The following legend is applicable only to US Government
 contracts under FAR:
  
                    RESTRICTED RIGHTS LEGEND
  
 Use, reproduction and disclosure by the US Government is
 subject to restrictions as set forth in subparagraphs (a)
 and (c) of the Commercial Computer Software - Restricted
 Rights clause in FAR 52.227-19.
  
 Gaussian, Inc.
 340 Quinnipiac St., Bldg. 40, Wallingford CT 06492
  
  
 ---------------------------------------------------------------
 Warning -- This program may not be used in any manner that
 competes with the business of Gaussian, Inc. or will provide
 assistance to any competitor of Gaussian, Inc.  The licensee
 of this program is prohibited from giving any competitor of
 Gaussian, Inc. access to this program.  By using this program,
 the user acknowledges that Gaussian, Inc. is engaged in the
 business of creating and licensing software in the field of
 computational chemistry and represents and warrants to the
 licensee that it is not a competitor of Gaussian, Inc. and that
 it will not use this program in any manner prohibited above.
 ---------------------------------------------------------------
  

 Cite this work as:
 Gaussian 16, Revision C.01,
 M. J. Frisch, G. W. Trucks, H. B. Schlegel, G. E. Scuseria, 
 M. A. Robb, J. R. Cheeseman, G. Scalmani, V. Barone, 
 G. A. Petersson, H. Nakatsuji, X. Li, M. Caricato, A. V. Marenich, 
 J. Bloino, B. G. Janesko, R. Gomperts, B. Mennucci, H. P. Hratchian, 
 J. V. Ortiz, A. F. Izmaylov, J. L. Sonnenberg, D. Williams-Young, 
 F. Ding, F. Lipparini, F. Egidi, J. Goings, B. Peng, A. Petrone, 
 T. Henderson, D. Ranasinghe, V. G. Zakrzewski, J. Gao, N. Rega, 
 G. Zheng, W. Liang, M. Hada, M. Ehara, K. Toyota, R. Fukuda, 
 J. Hasegawa, M. Ishida, T. Nakajima, Y. Honda, O. Kitao, H. Nakai, 
 T. Vreven, K. Throssell, J. A. Montgomery, Jr., J. E. Peralta, 
 F. Ogliaro, M. J. Bearpark, J. J. Heyd, E. N. Brothers, K. N. Kudin, 
 V. N. Staroverov, T. A. Keith, R. Kobayashi, J. Normand, 
 K. Raghavachari, A. P. Rendell, J. C. Burant, S. S. Iyengar, 
 J. Tomasi, M. Cossi, J. M. Millam, M. Klene, C. Adamo, R. Cammi, 
 J. W. Ochterski, R. L. Martin, K. Morokuma, O. Farkas, 
 J. B. Foresman, and D. J. Fox, Gaussian, Inc., Wallingford CT, 2019.
 
 ******************************************
 Gaussian 16:  ES64L-G16RevC.01  3-Jul-2019
                 3-Jun-2024 
 ******************************************
 %chk=a.chk
 %nprocshared=56
 Will use up to   56 processors via shared memory.
 %mem=96gb
 ----------------------------------------------------------------------
 # def2svp wb97xd scrf=(smd,solvent=acetonitrile) g09default scf=(xqc,m
 axcycle=64) force guess=read nosymm
 ----------------------------------------------------------------------
 1/10=7,30=1,38=1,158=3,167=1/1,3;
 2/12=2,15=1,17=6,18=5,40=1/2;
 3/5=43,7=101,11=2,25=1,27=10,30=1,70=32201,71=1,72=2,74=-58,75=-4,116=-2,158=3/1,2,3;
 4/5=1,60=-1/1;
 5/5=2,7=64,8=3,13=1,38=6,53=2,87=10/2,8;
 6/7=2,8=2,9=2,10=2,28=1,87=10/1;
 7/29=1,30=1,87=10/1,2,3,16;
 1/10=7,30=1,158=3,167=1/3;
 99//99;
 Using 2006 physical constants.
 ----------
 Title Card
 ----------
 Symbolic Z-matrix:
 Charge = -1 Multiplicity = 1
 17                   -9.71115   8.28257   10.54062 
 6                    -8.40096   4.3015    12.19692 
 6                    -9.21462   3.97984   11.09404 
 6                    -10.11532   2.90647   11.22771 
 6                    -10.2098   2.19309   12.41935 
 6                    -9.39501   2.52592   13.50252 
 6                    -8.48935   3.58251   13.384 
 1                    -7.69168   5.12885   12.12905 
 1                    -10.75782   2.64012   10.38349 
 1                    -10.92632   1.3726    12.50647 
 1                    -9.4555    1.95759   14.43302 
 1                    -7.85129   3.85556   14.22811 
 6                    -9.17468   4.73915   9.84216 
 6                    -8.4439    5.85185   9.62076 
 1                    -9.82293   4.36531   9.04141 
 1                    -8.46746   6.35823   8.65553 
 1                    -7.74241   6.24602   10.35684 
 8                    -0.97328  -1.829     7.45022 
 8                    -8.37137  -1.31876   7.45878 
 8                    -7.00454   1.32734   10.49407 
 8                    -2.32353  -4.39984   10.55599 
 74                   -3.36935   0.71752   6.51388 
 74                   -5.99873  -3.8505    6.5805 
 74                   -3.57423   0.88201   11.39089 
 74                   -5.77086  -3.90065   11.46122 
 74                   -2.45173  -2.58702   6.36781 
 74                   -6.8945   -0.54803   6.34362 
 74                   -6.77257  -0.27219   11.59868 
 74                   -2.55877  -2.74516   11.62819 
 8                    -3.12195   1.91681   5.35247 
 8                    -6.14489  -5.10071   5.43958 
 8                    -2.64795   1.72612   12.53851 
 8                    -6.68064  -4.71867   12.63814 
 8                    -2.65724  -0.90584   5.58716 
 8                    -6.68653  -2.28274   5.62243 
 8                    -5.26589   0.53684   12.36405 
 8                    -4.05583  -3.55196   12.40766 
 8                     0.35162  -0.09136   9.26574 
 8                    -9.69915  -2.99496   9.31799 
 8                    -6.38253   3.40728   8.68338 
 8                    -2.96825  -6.49401   8.7461 
 8                    -1.75139   0.72874   7.48841 
 8                    -7.60113  -3.87998   7.55322 
 8                    -4.47728   2.19237   10.42305 
 8                    -4.86126  -5.24537   10.51376 
 8                    -1.62826  -3.52014   5.20989 
 8                    -7.76714   0.25609   5.14299 
 8                    -7.9844   -0.16984   12.78357 
 8                    -1.32936  -2.87425   12.79419 
 74                   -1.215    -0.5919    8.83726 
 74                   -8.13299  -2.50484   8.87511 
 74                   -5.89186   1.83801   9.05323 
 74                   -3.45908  -4.91998   9.15804 
 8                    -4.22083  -3.12493   6.06414 
 8                    -5.12275  -0.05268   6.01784 
 8                    -6.16047  -2.02616   11.92464 
 8                    -3.15137  -0.99457   11.92128 
 8                    -4.33895   1.58138   7.85233 
 8                    -5.00005  -4.7052    7.92045 
 8                    -2.28515   0.54928   10.07351 
 8                    -7.05411  -3.62314   10.13155 
 8                    -2.56746  -3.91634   7.85097 
 8                    -6.79421   0.78283   7.80087 
 8                    -7.80669  -1.17847   10.15989 
 8                    -1.53772  -1.89589   10.14961 
 8                    -3.34284  -1.16892   8.01338 
 8                    -6.00248  -1.96891   8.03644 
 8                    -5.0939   -0.22063   9.94707 
 8                    -4.23084  -2.85738   9.97521 
 19                   -3.22604  -6.15199   5.64837 
 19                   -0.12227  -0.03405   12.32224 
 19                   -9.29907  -2.8215    12.39398 
 23                   -4.66959  -1.54977   8.99029 
 

 GradGradGradGradGradGradGradGradGradGradGradGradGradGradGradGradGradGrad
 Berny optimization.
 Initialization pass.
 Trust Radius=3.00D-01 FncErr=1.00D-07 GrdErr=1.00D-07 EigMax=2.50D+02 EigMin=1.00D-04
 Number of steps in this run=      2 maximum allowed number of steps=      2.
 GradGradGradGradGradGradGradGradGradGradGradGradGradGradGradGradGradGrad

 Symmetry turned off by external request.
 Stoichiometry    C8H8ClK3O40VW12(1-)
 Framework group  C1[X(C8H8ClK3O40VW12)]
 Deg. of freedom   213
 Full point group                 C1      NOp   1
                          Input orientation:                          
 ---------------------------------------------------------------------
 Center     Atomic      Atomic             Coordinates (Angstroms)
 Number     Number       Type             X           Y           Z
 ---------------------------------------------------------------------
      1         17           0       -9.711145    8.282568   10.540621
      2          6           0       -8.400957    4.301496   12.196923
      3          6           0       -9.214619    3.979843   11.094040
      4          6           0      -10.115321    2.906465   11.227712
      5          6           0      -10.209799    2.193094   12.419346
      6          6           0       -9.395009    2.525920   13.502522
      7          6           0       -8.489348    3.582509   13.384005
      8          1           0       -7.691679    5.128850   12.129046
      9          1           0      -10.757819    2.640123   10.383491
     10          1           0      -10.926323    1.372603   12.506471
     11          1           0       -9.455497    1.957595   14.433023
     12          1           0       -7.851294    3.855557   14.228108
     13          6           0       -9.174675    4.739147    9.842157
     14          6           0       -8.443899    5.851851    9.620765
     15          1           0       -9.822928    4.365314    9.041405
     16          1           0       -8.467455    6.358228    8.655534
     17          1           0       -7.742405    6.246016   10.356844
     18          8           0       -0.973276   -1.829000    7.450222
     19          8           0       -8.371374   -1.318760    7.458779
     20          8           0       -7.004537    1.327337   10.494075
     21          8           0       -2.323526   -4.399841   10.555987
     22         74           0       -3.369353    0.717518    6.513883
     23         74           0       -5.998731   -3.850502    6.580502
     24         74           0       -3.574227    0.882010   11.390892
     25         74           0       -5.770862   -3.900650   11.461220
     26         74           0       -2.451729   -2.587019    6.367812
     27         74           0       -6.894505   -0.548035    6.343619
     28         74           0       -6.772569   -0.272185   11.598685
     29         74           0       -2.558767   -2.745162   11.628192
     30          8           0       -3.121948    1.916807    5.352474
     31          8           0       -6.144889   -5.100707    5.439579
     32          8           0       -2.647946    1.726120   12.538508
     33          8           0       -6.680636   -4.718671   12.638137
     34          8           0       -2.657244   -0.905836    5.587163
     35          8           0       -6.686532   -2.282743    5.622427
     36          8           0       -5.265886    0.536844   12.364046
     37          8           0       -4.055826   -3.551959   12.407660
     38          8           0        0.351624   -0.091357    9.265737
     39          8           0       -9.699150   -2.994964    9.317990
     40          8           0       -6.382529    3.407280    8.683383
     41          8           0       -2.968254   -6.494009    8.746098
     42          8           0       -1.751388    0.728743    7.488415
     43          8           0       -7.601129   -3.879979    7.553221
     44          8           0       -4.477283    2.192373   10.423053
     45          8           0       -4.861259   -5.245372   10.513761
     46          8           0       -1.628260   -3.520141    5.209894
     47          8           0       -7.767136    0.256091    5.142995
     48          8           0       -7.984398   -0.169835   12.783567
     49          8           0       -1.329360   -2.874250   12.794191
     50         74           0       -1.215003   -0.591902    8.837262
     51         74           0       -8.132991   -2.504839    8.875106
     52         74           0       -5.891858    1.838010    9.053230
     53         74           0       -3.459077   -4.919983    9.158038
     54          8           0       -4.220831   -3.124928    6.064143
     55          8           0       -5.122753   -0.052677    6.017845
     56          8           0       -6.160470   -2.026157   11.924642
     57          8           0       -3.151372   -0.994574   11.921278
     58          8           0       -4.338948    1.581382    7.852330
     59          8           0       -5.000049   -4.705200    7.920445
     60          8           0       -2.285152    0.549280   10.073514
     61          8           0       -7.054107   -3.623143   10.131555
     62          8           0       -2.567458   -3.916336    7.850966
     63          8           0       -6.794206    0.782829    7.800872
     64          8           0       -7.806692   -1.178465   10.159891
     65          8           0       -1.537724   -1.895889   10.149613
     66          8           0       -3.342839   -1.168917    8.013376
     67          8           0       -6.002484   -1.968907    8.036436
     68          8           0       -5.093898   -0.220634    9.947074
     69          8           0       -4.230839   -2.857379    9.975209
     70         19           0       -3.226041   -6.151992    5.648368
     71         19           0       -0.122270   -0.034046   12.322241
     72         19           0       -9.299067   -2.821497   12.393980
     73         23           0       -4.669592   -1.549767    8.990286
 ---------------------------------------------------------------------
 Rotational constants (GHZ):           0.0171956           0.0131711           0.0129511
 Standard basis: def2SVP (5D, 7F)
  1217 basis functions,  2313 primitive gaussians,  1337 cartesian basis functions
   321 alpha electrons      321 beta electrons
       nuclear repulsion energy     20954.1257766822 Hartrees.
 NAtoms=   73 NActive=   73 NUniq=   73 SFac= 1.00D+00 NAtFMM=   60 NAOKFM=T Big=T
 Integral buffers will be    131072 words long.
 Raffenetti 2 integral format.
 Two-electron integral symmetry is turned off.
 Nuclear repulsion after empirical dispersion term =    20953.8497956951 Hartrees.
 Force PCM accuracy= 1.00D-10.
 ------------------------------------------------------------------------------
 Polarizable Continuum Model (PCM)
 =================================
 Model                : PCM (using non-symmetric T matrix).
 Atomic radii         : SMD-Coulomb.
 Polarization charges : Total charges.
 Charge compensation  : None.
 Solution method      : On-the-fly selection.
 Cavity type          : VdW (van der Waals Surface) (Alpha=1.000).
 Cavity algorithm     : GePol (No added spheres)
                        Default sphere list used, NSphG=   73.
                        Lebedev-Laikov grids with approx.  5.0 points / Ang**2.
                        Smoothing algorithm: York/Karplus (Gamma=1.0000).
                        Polarization charges: spherical gaussians, with
                                              point-specific exponents (IZeta= 3).
                        Self-potential: point-specific (ISelfS= 7).
                        Self-field    : sphere-specific E.n sum rule (ISelfD= 2).
 1st derivatives      : Analytical E(r).r(x)/FMM algorithm (CHGder, D1EAlg=3).
                        Cavity 1st derivative terms included.
 Solvent              : Acetonitrile, Eps=  35.688000 Eps(inf)=   1.806874
 ------------------------------------------------------------------------------
 ------------------------------------------------------------------------------
 Atomic radii for non-electrostatic terms: SMD-CDS.
 ------------------------------------------------------------------------------
 Nuclear repulsion after PCM non-electrostatic terms =    20953.8440040192 Hartrees.
 One-electron integrals computed using PRISM.
   1 Symmetry operations used in ECPInt.
 ECPInt:  NShTT=  127765 NPrTT=  468030 LenC2=   96387 LenP2D=  220532.
 LDataN:  DoStor=T MaxTD1= 8 Len=  415
 NBasis=  1217 RedAO= T EigKep=  1.38D-04  NBF=  1217
 NBsUse=  1217 1.00D-06 EigRej= -1.00D+00 NBFU=  1217
 Defaulting to unpruned grid for atomic number  74.
 Defaulting to unpruned grid for atomic number  74.
 Defaulting to unpruned grid for atomic number  74.
 Defaulting to unpruned grid for atomic number  74.
 Defaulting to unpruned grid for atomic number  74.
 Defaulting to unpruned grid for atomic number  74.
 Defaulting to unpruned grid for atomic number  74.
 Defaulting to unpruned grid for atomic number  74.
 Initial guess from the checkpoint file:  "a.chk"
 B after Tr=     0.000500    0.000319    0.000248
         Rot=    1.000000   -0.000036   -0.000004    0.000021 Ang=  -0.00 deg.
 Requested convergence on RMS density matrix=1.00D-08 within  64 cycles.
 Requested convergence on MAX density matrix=1.00D-06.
 Requested convergence on             energy=1.00D-06.
 No special actions if energy rises.
 Defaulting to unpruned grid for atomic number  74.
 Defaulting to unpruned grid for atomic number  74.
 Defaulting to unpruned grid for atomic number  74.
 Defaulting to unpruned grid for atomic number  74.
 Defaulting to unpruned grid for atomic number  74.
 Defaulting to unpruned grid for atomic number  74.
 Defaulting to unpruned grid for atomic number  74.
 Defaulting to unpruned grid for atomic number  74.
 Defaulting to unpruned grid for atomic number  74.
 Defaulting to unpruned grid for atomic number  74.
 Defaulting to unpruned grid for atomic number  74.
 Defaulting to unpruned grid for atomic number  74.
 Defaulting to unpruned grid for atomic number  74.
 Defaulting to unpruned grid for atomic number  74.
 Defaulting to unpruned grid for atomic number  74.
 Defaulting to unpruned grid for atomic number  74.
 Defaulting to unpruned grid for atomic number  74.
 Defaulting to unpruned grid for atomic number  74.
 Defaulting to unpruned grid for atomic number  74.
 Defaulting to unpruned grid for atomic number  74.
 Defaulting to unpruned grid for atomic number  74.
 Defaulting to unpruned grid for atomic number  74.
 Defaulting to unpruned grid for atomic number  74.
 Defaulting to unpruned grid for atomic number  74.
 Defaulting to unpruned grid for atomic number  74.
 Defaulting to unpruned grid for atomic number  74.
 Defaulting to unpruned grid for atomic number  74.
 Defaulting to unpruned grid for atomic number  74.
 Defaulting to unpruned grid for atomic number  74.
 Defaulting to unpruned grid for atomic number  74.
 Defaulting to unpruned grid for atomic number  74.
 Defaulting to unpruned grid for atomic number  74.
 Defaulting to unpruned grid for atomic number  74.
 Defaulting to unpruned grid for atomic number  74.
 Defaulting to unpruned grid for atomic number  74.
 Defaulting to unpruned grid for atomic number  74.
 Defaulting to unpruned grid for atomic number  74.
 Defaulting to unpruned grid for atomic number  74.
 Defaulting to unpruned grid for atomic number  74.
 Defaulting to unpruned grid for atomic number  74.
 Defaulting to unpruned grid for atomic number  74.
 Defaulting to unpruned grid for atomic number  74.
 Defaulting to unpruned grid for atomic number  74.
 Defaulting to unpruned grid for atomic number  74.
 Defaulting to unpruned grid for atomic number  74.
 Defaulting to unpruned grid for atomic number  74.
 Defaulting to unpruned grid for atomic number  74.
 Defaulting to unpruned grid for atomic number  74.
 Defaulting to unpruned grid for atomic number  74.
 Defaulting to unpruned grid for atomic number  74.
 Defaulting to unpruned grid for atomic number  74.
 Defaulting to unpruned grid for atomic number  74.
 Defaulting to unpruned grid for atomic number  74.
 Defaulting to unpruned grid for atomic number  74.
 Defaulting to unpruned grid for atomic number  74.
 Defaulting to unpruned grid for atomic number  74.
 Inv3:  Mode=1 IEnd=    87771843.
 Iteration    1 A*A^-1 deviation from unit magnitude is 4.00D-15 for    479.
 Iteration    1 A*A^-1 deviation from orthogonality  is 3.33D-15 for   3529   2235.
 Iteration    1 A^-1*A deviation from unit magnitude is 4.00D-15 for   3796.
 Iteration    1 A^-1*A deviation from orthogonality  is 5.38D-08 for   4065   4023.
 Iteration    2 A*A^-1 deviation from unit magnitude is 4.22D-15 for   1811.
 Iteration    2 A*A^-1 deviation from orthogonality  is 3.71D-15 for    575    195.
 Iteration    2 A^-1*A deviation from unit magnitude is 1.55D-15 for   5240.
 Iteration    2 A^-1*A deviation from orthogonality  is 6.20D-16 for   3974   3951.
 Error on total polarization charges =  0.01623
 SCF Done:  E(RwB97XD) =  -7327.70231271     A.U. after   12 cycles
            NFock= 12  Conv=0.20D-08     -V/T= 2.0832
 SMD-CDS (non-electrostatic) energy       (kcal/mol) =      -3.63
 (included in total energy above)
 QCSCF skips out because SCF is already converged.

 **********************************************************************

            Population analysis using the SCF Density.

 **********************************************************************

 Alpha  occ. eigenvalues -- -197.29325-130.00130-130.00044-130.00019-101.48293
 Alpha  occ. eigenvalues --  -22.62463 -19.33621 -19.33610 -19.33609 -19.33584
 Alpha  occ. eigenvalues --  -19.30729 -19.30690 -19.30687 -19.30682 -19.30665
 Alpha  occ. eigenvalues --  -19.30659 -19.30651 -19.30635 -19.30586 -19.30366
 Alpha  occ. eigenvalues --  -19.30340 -19.30177 -19.29381 -19.29364 -19.29360
 Alpha  occ. eigenvalues --  -19.29347 -19.29339 -19.29319 -19.29309 -19.29284
 Alpha  occ. eigenvalues --  -19.29243 -19.29232 -19.29216 -19.29209 -19.29195
 Alpha  occ. eigenvalues --  -19.29162 -19.29132 -19.29122 -19.29121 -19.29119
 Alpha  occ. eigenvalues --  -19.29110 -19.29094 -19.29046 -19.29005 -19.28980
 Alpha  occ. eigenvalues --  -19.28905 -19.11418 -19.11410 -19.11401 -13.37532
 Alpha  occ. eigenvalues --  -13.37437 -13.37415 -10.70461 -10.70454 -10.70454
 Alpha  occ. eigenvalues --  -10.70368 -10.70361 -10.70356 -10.70346 -10.70339
 Alpha  occ. eigenvalues --  -10.70338 -10.29887 -10.29323 -10.29310 -10.29050
 Alpha  occ. eigenvalues --  -10.29002 -10.28919 -10.28232 -10.27483  -9.38762
 Alpha  occ. eigenvalues --   -7.13593  -7.13537  -7.13534  -3.23295  -3.23283
 Alpha  occ. eigenvalues --   -3.23280  -3.23279  -3.23261  -3.23233  -3.23231
 Alpha  occ. eigenvalues --   -3.23226  -3.23214  -3.22946  -3.22933  -3.22761
 Alpha  occ. eigenvalues --   -2.91745  -1.94135  -1.94106  -1.94096  -1.87705
 Alpha  occ. eigenvalues --   -1.87651  -1.87642  -1.87608  -1.87480  -1.87459
 Alpha  occ. eigenvalues --   -1.87451  -1.87440  -1.87416  -1.87261  -1.87232
 Alpha  occ. eigenvalues --   -1.87089  -1.86622  -1.86502  -1.86492  -1.86478
 Alpha  occ. eigenvalues --   -1.86445  -1.86423  -1.86337  -1.86307  -1.86297
 Alpha  occ. eigenvalues --   -1.86288  -1.86266  -1.86256  -1.86137  -1.86123
 Alpha  occ. eigenvalues --   -1.86110  -1.86097  -1.86029  -1.86012  -1.85982
 Alpha  occ. eigenvalues --   -1.85908  -1.85886  -1.85789  -1.85713  -1.85656
 Alpha  occ. eigenvalues --   -1.51219  -1.51129  -1.51113  -1.13020  -1.11245
 Alpha  occ. eigenvalues --   -1.11160  -1.11158  -1.08969  -1.08531  -1.08499
 Alpha  occ. eigenvalues --   -1.08308  -1.07556  -1.07486  -1.07480  -1.06897
 Alpha  occ. eigenvalues --   -1.06885  -1.06867  -1.06289  -1.06267  -1.05362
 Alpha  occ. eigenvalues --   -1.05355  -1.04975  -1.04970  -1.04953  -1.04236
 Alpha  occ. eigenvalues --   -1.04228  -1.04191  -1.04046  -1.04013  -1.03995
 Alpha  occ. eigenvalues --   -1.03937  -1.03921  -1.03892  -1.03763  -1.03750
 Alpha  occ. eigenvalues --   -1.03616  -1.03571  -1.03305  -1.03271  -1.03164
 Alpha  occ. eigenvalues --   -1.03145  -1.03082  -1.02996  -0.94371  -0.86685
 Alpha  occ. eigenvalues --   -0.86603  -0.86591  -0.86521  -0.86495  -0.86493
 Alpha  occ. eigenvalues --   -0.86420  -0.86395  -0.86389  -0.86384  -0.82812
 Alpha  occ. eigenvalues --   -0.79743  -0.71516  -0.69667  -0.68011  -0.64579
 Alpha  occ. eigenvalues --   -0.63950  -0.63885  -0.63864  -0.63274  -0.63259
 Alpha  occ. eigenvalues --   -0.63148  -0.62968  -0.62664  -0.62599  -0.61936
 Alpha  occ. eigenvalues --   -0.61599  -0.61579  -0.61480  -0.61226  -0.61206
 Alpha  occ. eigenvalues --   -0.61165  -0.60421  -0.59463  -0.59439  -0.59419
 Alpha  occ. eigenvalues --   -0.59374  -0.59344  -0.58686  -0.58008  -0.57975
 Alpha  occ. eigenvalues --   -0.57894  -0.57058  -0.57035  -0.56999  -0.56262
 Alpha  occ. eigenvalues --   -0.56239  -0.56094  -0.55708  -0.54869  -0.54806
 Alpha  occ. eigenvalues --   -0.54767  -0.54528  -0.54236  -0.54116  -0.54101
 Alpha  occ. eigenvalues --   -0.54030  -0.53963  -0.53269  -0.53230  -0.53095
 Alpha  occ. eigenvalues --   -0.53053  -0.52913  -0.52740  -0.52708  -0.52657
 Alpha  occ. eigenvalues --   -0.52622  -0.52515  -0.52460  -0.52419  -0.51625
 Alpha  occ. eigenvalues --   -0.51606  -0.51382  -0.51344  -0.51319  -0.51259
 Alpha  occ. eigenvalues --   -0.51190  -0.51166  -0.50986  -0.50804  -0.50624
 Alpha  occ. eigenvalues --   -0.50600  -0.50598  -0.49961  -0.49945  -0.49294
 Alpha  occ. eigenvalues --   -0.49262  -0.49240  -0.49215  -0.49162  -0.49089
 Alpha  occ. eigenvalues --   -0.48907  -0.48081  -0.48037  -0.47924  -0.47642
 Alpha  occ. eigenvalues --   -0.47397  -0.47294  -0.47249  -0.47045  -0.46979
 Alpha  occ. eigenvalues --   -0.46923  -0.46636  -0.46630  -0.46460  -0.46216
 Alpha  occ. eigenvalues --   -0.46163  -0.46123  -0.45675  -0.45109  -0.44934
 Alpha  occ. eigenvalues --   -0.44901  -0.44201  -0.44159  -0.44040  -0.43549
 Alpha  occ. eigenvalues --   -0.43325  -0.43284  -0.43146  -0.43140  -0.43101
 Alpha  occ. eigenvalues --   -0.42777  -0.42752  -0.42717  -0.42627  -0.42610
 Alpha  occ. eigenvalues --   -0.42541  -0.42503  -0.42490  -0.42315  -0.42308
 Alpha  occ. eigenvalues --   -0.42281  -0.42062  -0.41923  -0.41884  -0.41871
 Alpha  occ. eigenvalues --   -0.41272  -0.41252  -0.41199  -0.41115  -0.40601
 Alpha  occ. eigenvalues --   -0.40588  -0.40577  -0.40342  -0.39456  -0.39446
 Alpha  occ. eigenvalues --   -0.37084  -0.32573  -0.29230  -0.25073  -0.25045
 Alpha  occ. eigenvalues --   -0.23439
 Alpha virt. eigenvalues --   -0.09371  -0.09169  -0.08295  -0.08249  -0.06864
 Alpha virt. eigenvalues --   -0.06837  -0.06740  -0.04384  -0.04100  -0.04046
 Alpha virt. eigenvalues --   -0.03724  -0.03500  -0.03438  -0.03220  -0.03064
 Alpha virt. eigenvalues --   -0.03022  -0.03000  -0.02237  -0.02192  -0.02165
 Alpha virt. eigenvalues --   -0.01469  -0.01443  -0.01389  -0.01292  -0.01215
 Alpha virt. eigenvalues --   -0.00032  -0.00014   0.00032   0.01398   0.01417
 Alpha virt. eigenvalues --    0.01872   0.01917   0.02001   0.02131   0.02186
 Alpha virt. eigenvalues --    0.02208   0.02263   0.02327   0.02779   0.02851
 Alpha virt. eigenvalues --    0.02931   0.02999   0.03033   0.04393   0.04543
 Alpha virt. eigenvalues --    0.06739   0.07227   0.07431   0.07476   0.07704
 Alpha virt. eigenvalues --    0.08002   0.08486   0.08506   0.08764   0.09134
 Alpha virt. eigenvalues --    0.09303   0.09362   0.09637   0.09838   0.10167
 Alpha virt. eigenvalues --    0.10235   0.10279   0.10302   0.10357   0.10623
 Alpha virt. eigenvalues --    0.10883   0.11038   0.11063   0.11618   0.11715
 Alpha virt. eigenvalues --    0.12195   0.13112   0.13211   0.13322   0.13606
 Alpha virt. eigenvalues --    0.13747   0.14439   0.14543   0.14648   0.14974
 Alpha virt. eigenvalues --    0.15479   0.16115   0.16324   0.16523   0.16682
 Alpha virt. eigenvalues --    0.16703   0.16903   0.17045   0.17210   0.17631
 Alpha virt. eigenvalues --    0.17882   0.18121   0.18182   0.18370   0.18538
 Alpha virt. eigenvalues --    0.18712   0.18889   0.19172   0.19297   0.19483
 Alpha virt. eigenvalues --    0.19528   0.20070   0.20231   0.20352   0.20577
 Alpha virt. eigenvalues --    0.20667   0.20835   0.20918   0.21233   0.21326
 Alpha virt. eigenvalues --    0.21382   0.21490   0.21603   0.21882   0.22041
 Alpha virt. eigenvalues --    0.22439   0.22696   0.22847   0.23157   0.23199
 Alpha virt. eigenvalues --    0.23402   0.23751   0.23923   0.24219   0.24547
 Alpha virt. eigenvalues --    0.24782   0.25208   0.25456   0.25614   0.25919
 Alpha virt. eigenvalues --    0.26035   0.26152   0.26420   0.26484   0.26753
 Alpha virt. eigenvalues --    0.26949   0.27243   0.27342   0.27414   0.27641
 Alpha virt. eigenvalues --    0.27981   0.28213   0.28287   0.28462   0.28678
 Alpha virt. eigenvalues --    0.28971   0.29604   0.29882   0.30437   0.30470
 Alpha virt. eigenvalues --    0.30688   0.30921   0.31206   0.31457   0.31778
 Alpha virt. eigenvalues --    0.32203   0.34756   0.35135   0.35824   0.36278
 Alpha virt. eigenvalues --    0.36575   0.36869   0.37164   0.38069   0.38398
 Alpha virt. eigenvalues --    0.38609   0.39120   0.39449   0.39580   0.40206
 Alpha virt. eigenvalues --    0.40647   0.40829   0.40912   0.41110   0.41642
 Alpha virt. eigenvalues --    0.42052   0.42211   0.42616   0.43254   0.43423
 Alpha virt. eigenvalues --    0.43670   0.44378   0.44656   0.44752   0.45105
 Alpha virt. eigenvalues --    0.45651   0.46233   0.46449   0.46654   0.47120
 Alpha virt. eigenvalues --    0.47353   0.47606   0.47835   0.47975   0.48157
 Alpha virt. eigenvalues --    0.48322   0.48432   0.48517   0.48649   0.48890
 Alpha virt. eigenvalues --    0.49112   0.49299   0.49412   0.49754   0.49851
 Alpha virt. eigenvalues --    0.50165   0.50260   0.50481   0.50892   0.51104
 Alpha virt. eigenvalues --    0.51601   0.51764   0.51909   0.52300   0.52436
 Alpha virt. eigenvalues --    0.52620   0.52842   0.53013   0.53112   0.53277
 Alpha virt. eigenvalues --    0.53525   0.53897   0.54154   0.54279   0.54426
 Alpha virt. eigenvalues --    0.55010   0.55450   0.55620   0.56333   0.56461
 Alpha virt. eigenvalues --    0.56778   0.57343   0.57534   0.58061   0.58290
 Alpha virt. eigenvalues --    0.58572   0.59076   0.59417   0.60253   0.60785
 Alpha virt. eigenvalues --    0.61477   0.62107   0.62646   0.62730   0.63126
 Alpha virt. eigenvalues --    0.64158   0.65274   0.65661   0.65750   0.65868
 Alpha virt. eigenvalues --    0.66121   0.66412   0.66939   0.67329   0.67398
 Alpha virt. eigenvalues --    0.67840   0.68144   0.69497   0.70148   0.71155
 Alpha virt. eigenvalues --    0.71398   0.71968   0.72157   0.72296   0.72311
 Alpha virt. eigenvalues --    0.72577   0.72719   0.73148   0.73290   0.73954
 Alpha virt. eigenvalues --    0.74580   0.74769   0.75370   0.75648   0.75770
 Alpha virt. eigenvalues --    0.76172   0.76657   0.76928   0.77176   0.77393
 Alpha virt. eigenvalues --    0.78155   0.78568   0.79008   0.79428   0.79537
 Alpha virt. eigenvalues --    0.79878   0.80220   0.80425   0.80725   0.81296
 Alpha virt. eigenvalues --    0.81511   0.81606   0.81987   0.82443   0.83106
 Alpha virt. eigenvalues --    0.83770   0.84172   0.84601   0.85477   0.86103
 Alpha virt. eigenvalues --    0.86953   0.87250   0.87920   0.88014   0.88582
 Alpha virt. eigenvalues --    0.88791   0.89039   0.89413   0.89494   0.90197
 Alpha virt. eigenvalues --    0.90473   0.90718   0.91137   0.91252   0.91591
 Alpha virt. eigenvalues --    0.92432   0.92847   0.93312   0.93882   0.94114
 Alpha virt. eigenvalues --    0.94306   0.94885   0.95607   0.95967   0.96553
 Alpha virt. eigenvalues --    0.96889   0.97066   0.97228   0.97797   0.97923
 Alpha virt. eigenvalues --    0.98160   0.98272   0.98460   0.98610   0.98736
 Alpha virt. eigenvalues --    0.98903   0.99425   0.99998   1.00021   1.00171
 Alpha virt. eigenvalues --    1.00807   1.01213   1.01456   1.01509   1.01691
 Alpha virt. eigenvalues --    1.01961   1.02125   1.02321   1.02498   1.02664
 Alpha virt. eigenvalues --    1.02885   1.03406   1.03518   1.03648   1.04048
 Alpha virt. eigenvalues --    1.04250   1.04347   1.04468   1.04728   1.04860
 Alpha virt. eigenvalues --    1.05033   1.05207   1.05264   1.05422   1.05822
 Alpha virt. eigenvalues --    1.05926   1.06347   1.06866   1.07055   1.07160
 Alpha virt. eigenvalues --    1.07501   1.07967   1.08715   1.08850   1.09167
 Alpha virt. eigenvalues --    1.09277   1.09732   1.09954   1.10033   1.10195
 Alpha virt. eigenvalues --    1.10710   1.10831   1.10904   1.10986   1.11215
 Alpha virt. eigenvalues --    1.11440   1.11615   1.11729   1.11934   1.12353
 Alpha virt. eigenvalues --    1.12688   1.13409   1.13711   1.14075   1.14780
 Alpha virt. eigenvalues --    1.15251   1.15746   1.16178   1.16274   1.16648
 Alpha virt. eigenvalues --    1.17178   1.17560   1.17953   1.18530   1.19000
 Alpha virt. eigenvalues --    1.20124   1.20494   1.20892   1.21082   1.21160
 Alpha virt. eigenvalues --    1.21322   1.21702   1.21998   1.22786   1.23523
 Alpha virt. eigenvalues --    1.24918   1.25739   1.25951   1.26330   1.26590
 Alpha virt. eigenvalues --    1.27051   1.27805   1.28249   1.28548   1.28595
 Alpha virt. eigenvalues --    1.28759   1.28843   1.29032   1.29226   1.29970
 Alpha virt. eigenvalues --    1.30114   1.30305   1.30527   1.30697   1.30767
 Alpha virt. eigenvalues --    1.31027   1.31925   1.32185   1.32751   1.32935
 Alpha virt. eigenvalues --    1.33124   1.33434   1.33645   1.33803   1.34038
 Alpha virt. eigenvalues --    1.34184   1.34377   1.34438   1.34570   1.34682
 Alpha virt. eigenvalues --    1.35036   1.35079   1.35612   1.35852   1.36013
 Alpha virt. eigenvalues --    1.36170   1.36322   1.36613   1.36731   1.36768
 Alpha virt. eigenvalues --    1.37000   1.37288   1.37511   1.37601   1.37794
 Alpha virt. eigenvalues --    1.37948   1.38291   1.38452   1.38719   1.38920
 Alpha virt. eigenvalues --    1.39239   1.39566   1.39676   1.39793   1.39949
 Alpha virt. eigenvalues --    1.40359   1.40439   1.40550   1.40762   1.40973
 Alpha virt. eigenvalues --    1.41113   1.41156   1.41426   1.41841   1.41959
 Alpha virt. eigenvalues --    1.42357   1.42621   1.43073   1.43173   1.43285
 Alpha virt. eigenvalues --    1.43576   1.43896   1.44267   1.44365   1.45474
 Alpha virt. eigenvalues --    1.46024   1.46305   1.47546   1.47577   1.47710
 Alpha virt. eigenvalues --    1.48180   1.48282   1.49253   1.49797   1.49972
 Alpha virt. eigenvalues --    1.50308   1.50832   1.51309   1.51727   1.52919
 Alpha virt. eigenvalues --    1.53284   1.55428   1.55697   1.55749   1.55803
 Alpha virt. eigenvalues --    1.55989   1.56233   1.56557   1.56599   1.57180
 Alpha virt. eigenvalues --    1.57266   1.57801   1.58421   1.58874   1.59072
 Alpha virt. eigenvalues --    1.59465   1.59961   1.60146   1.60423   1.60506
 Alpha virt. eigenvalues --    1.60586   1.61091   1.61996   1.62168   1.62761
 Alpha virt. eigenvalues --    1.63846   1.64211   1.64899   1.65399   1.66987
 Alpha virt. eigenvalues --    1.67712   1.68061   1.69567   1.70588   1.70853
 Alpha virt. eigenvalues --    1.71319   1.71652   1.72425   1.73437   1.73944
 Alpha virt. eigenvalues --    1.74917   1.75071   1.75204   1.75622   1.76384
 Alpha virt. eigenvalues --    1.76446   1.76622   1.77146   1.77360   1.78396
 Alpha virt. eigenvalues --    1.78526   1.78774   1.78882   1.80108   1.80276
 Alpha virt. eigenvalues --    1.81286   1.81388   1.81918   1.82218   1.82846
 Alpha virt. eigenvalues --    1.82898   1.83325   1.83723   1.83879   1.84422
 Alpha virt. eigenvalues --    1.85102   1.85301   1.85556   1.85909   1.86184
 Alpha virt. eigenvalues --    1.86537   1.87023   1.87361   1.88070   1.88401
 Alpha virt. eigenvalues --    1.89266   1.89878   1.90165   1.90240   1.90493
 Alpha virt. eigenvalues --    1.90828   1.91240   1.91469   1.92341   1.93326
 Alpha virt. eigenvalues --    1.94791   1.95130   1.95295   1.95446   1.95909
 Alpha virt. eigenvalues --    1.98089   1.99082   1.99325   1.99403   2.04431
 Alpha virt. eigenvalues --    2.06276   2.06665   2.08077   2.08208   2.08515
 Alpha virt. eigenvalues --    2.08675   2.09111   2.09523   2.10088   2.10683
 Alpha virt. eigenvalues --    2.11339   2.11883   2.12430   2.14776   2.15450
 Alpha virt. eigenvalues --    2.15927   2.16642   2.17130   2.17337   2.17703
 Alpha virt. eigenvalues --    2.20009   2.20398   2.20505   2.20804   2.20986
 Alpha virt. eigenvalues --    2.21124   2.22066   2.23832   2.25173   2.25556
 Alpha virt. eigenvalues --    2.26088   2.26339   2.26921   2.28002   2.28441
 Alpha virt. eigenvalues --    2.28713   2.29347   2.29751   2.33462   2.35443
 Alpha virt. eigenvalues --    2.36516   2.38981   2.40785   2.40980   2.43498
 Alpha virt. eigenvalues --    2.44153   2.50616   2.51730   2.57270   2.64857
 Alpha virt. eigenvalues --    2.64909   2.65074   2.65861   2.66095   2.66537
 Alpha virt. eigenvalues --    2.66759   2.66815   2.66896   2.67003   2.67015
 Alpha virt. eigenvalues --    2.67104   2.67202   2.67303   2.67340   2.67375
 Alpha virt. eigenvalues --    2.67649   2.67679   2.67850   2.67879   2.67939
 Alpha virt. eigenvalues --    2.68772   2.68932   2.69190   2.69308   2.70000
 Alpha virt. eigenvalues --    2.70097   2.70169   2.70353   2.70494   2.70632
 Alpha virt. eigenvalues --    2.70676   2.71316   2.71458   2.71490   2.71542
 Alpha virt. eigenvalues --    2.71657   2.71846   2.72430   2.72666   2.72864
 Alpha virt. eigenvalues --    2.72971   2.73062   2.73168   2.73262   2.73306
 Alpha virt. eigenvalues --    2.73392   2.73658   2.73792   2.73846   2.73999
 Alpha virt. eigenvalues --    2.74074   2.74193   2.74360   2.74559   2.74698
 Alpha virt. eigenvalues --    2.74771   2.74911   2.75086   2.75575   2.76050
 Alpha virt. eigenvalues --    2.76147   2.76232   2.76398   2.76708   2.76894
 Alpha virt. eigenvalues --    2.76991   2.77050   2.77084   2.78282   2.78405
 Alpha virt. eigenvalues --    2.78612   2.78751   2.79892   2.80165   2.80272
 Alpha virt. eigenvalues --    2.81028   2.81573   2.81619   2.81850   2.82102
 Alpha virt. eigenvalues --    2.82147   2.82718   2.83018   2.83270   2.83682
 Alpha virt. eigenvalues --    2.83773   2.83934   2.84034   2.84205   2.84967
 Alpha virt. eigenvalues --    2.85493   2.86036   2.86092   2.86470   2.86529
 Alpha virt. eigenvalues --    2.86642   2.86720   2.86839   2.87696   2.88223
 Alpha virt. eigenvalues --    2.88485   2.88703   2.89490   2.89539   2.89634
 Alpha virt. eigenvalues --    2.89816   2.89841   2.89987   2.90268   2.90348
 Alpha virt. eigenvalues --    2.90411   2.91580   2.91751   2.91819   2.91958
 Alpha virt. eigenvalues --    2.92237   2.92435   2.92667   2.92991   2.93123
 Alpha virt. eigenvalues --    2.93243   2.93469   2.93667   2.93881   2.94124
 Alpha virt. eigenvalues --    2.94187   2.95065   2.95276   2.95450   2.95725
 Alpha virt. eigenvalues --    2.95831   2.95908   2.96369   2.96563   2.96671
 Alpha virt. eigenvalues --    2.96729   2.96872   2.96919   2.97135   2.97422
 Alpha virt. eigenvalues --    2.97542   2.97689   2.97899   2.98301   2.99053
 Alpha virt. eigenvalues --    2.99257   2.99606   2.99750   2.99851   3.00083
 Alpha virt. eigenvalues --    3.00348   3.00526   3.01158   3.01341   3.01632
 Alpha virt. eigenvalues --    3.02780   3.03279   3.03408   3.03775   3.04682
 Alpha virt. eigenvalues --    3.06093   3.06294   3.06705   3.11029   3.11174
 Alpha virt. eigenvalues --    3.11266   3.11351   3.12030   3.12393   3.13571
 Alpha virt. eigenvalues --    3.13668   3.13806   3.16760   3.20003   3.21715
 Alpha virt. eigenvalues --    3.21850   3.23846   3.32520   3.40423   3.40906
 Alpha virt. eigenvalues --    3.41399   3.42242   3.44005   3.44117   3.45115
 Alpha virt. eigenvalues --    3.45461   3.45610   3.46629   3.46722   3.47200
 Alpha virt. eigenvalues --    3.48439   3.50680   3.51387   3.51765   3.53066
 Alpha virt. eigenvalues --    3.53255   3.53849   3.54298   3.54699   3.54899
 Alpha virt. eigenvalues --    3.54992   3.55027   3.55227   3.55912   3.57183
 Alpha virt. eigenvalues --    3.57302   3.57792   3.59108   3.59339   3.59892
 Alpha virt. eigenvalues --    3.60407   3.60938   3.61297   3.61608   3.62124
 Alpha virt. eigenvalues --    3.69702   3.74780  68.64726  68.65698  68.66832
 Alpha virt. eigenvalues --   68.69025  68.72752  68.73944  68.81611  68.82544
 Alpha virt. eigenvalues --   68.83037  68.85918  68.87055  68.88110 576.23148
 Alpha virt. eigenvalues --  576.24098 576.25210 576.27351 576.31092 576.32270
 Alpha virt. eigenvalues --  576.39788 576.40699 576.41178 576.43964 576.45071
 Alpha virt. eigenvalues --  576.46119
          Condensed to atoms (all electrons):
 Mulliken charges:
               1
     1  Cl  -0.898275
     2  C   -0.082082
     3  C    0.046912
     4  C   -0.081451
     5  C   -0.034711
     6  C   -0.033021
     7  C   -0.048354
     8  H    0.028614
     9  H    0.029497
    10  H    0.041375
    11  H    0.037402
    12  H    0.039499
    13  C   -0.128006
    14  C    0.036320
    15  H    0.019207
    16  H    0.035762
    17  H    0.029056
    18  O   -0.660860
    19  O   -0.659211
    20  O   -0.654589
    21  O   -0.661494
    22  W    1.728668
    23  W    1.668899
    24  W    1.680412
    25  W    1.691527
    26  W    1.671510
    27  W    1.724022
    28  W    1.613086
    29  W    1.680496
    30  O   -0.320328
    31  O   -0.365539
    32  O   -0.365967
    33  O   -0.357415
    34  O   -0.661268
    35  O   -0.669231
    36  O   -0.658987
    37  O   -0.661281
    38  O   -0.366458
    39  O   -0.366647
    40  O   -0.298994
    41  O   -0.364853
    42  O   -0.668467
    43  O   -0.661553
    44  O   -0.657375
    45  O   -0.664710
    46  O   -0.366991
    47  O   -0.320492
    48  O   -0.359955
    49  O   -0.364362
    50  W    1.667957
    51  W    1.672986
    52  W    1.681990
    53  W    1.679890
    54  O   -0.722177
    55  O   -0.704835
    56  O   -0.723463
    57  O   -0.720963
    58  O   -0.702842
    59  O   -0.723971
    60  O   -0.722462
    61  O   -0.717821
    62  O   -0.722504
    63  O   -0.704699
    64  O   -0.723599
    65  O   -0.724545
    66  O   -0.800617
    67  O   -0.799845
    68  O   -0.797394
    69  O   -0.807656
    70  K    0.865678
    71  K    0.862702
    72  K    0.862424
    73  V    1.186435
 Sum of Mulliken charges =  -1.00000
 Mulliken charges with hydrogens summed into heavy atoms:
               1
     1  Cl  -0.898275
     2  C   -0.053468
     3  C    0.046912
     4  C   -0.051954
     5  C    0.006663
     6  C    0.004380
     7  C   -0.008855
    13  C   -0.108799
    14  C    0.101138
    18  O   -0.660860
    19  O   -0.659211
    20  O   -0.654589
    21  O   -0.661494
    22  W    1.728668
    23  W    1.668899
    24  W    1.680412
    25  W    1.691527
    26  W    1.671510
    27  W    1.724022
    28  W    1.613086
    29  W    1.680496
    30  O   -0.320328
    31  O   -0.365539
    32  O   -0.365967
    33  O   -0.357415
    34  O   -0.661268
    35  O   -0.669231
    36  O   -0.658987
    37  O   -0.661281
    38  O   -0.366458
    39  O   -0.366647
    40  O   -0.298994
    41  O   -0.364853
    42  O   -0.668467
    43  O   -0.661553
    44  O   -0.657375
    45  O   -0.664710
    46  O   -0.366991
    47  O   -0.320492
    48  O   -0.359955
    49  O   -0.364362
    50  W    1.667957
    51  W    1.672986
    52  W    1.681990
    53  W    1.679890
    54  O   -0.722177
    55  O   -0.704835
    56  O   -0.723463
    57  O   -0.720963
    58  O   -0.702842
    59  O   -0.723971
    60  O   -0.722462
    61  O   -0.717821
    62  O   -0.722504
    63  O   -0.704699
    64  O   -0.723599
    65  O   -0.724545
    66  O   -0.800617
    67  O   -0.799845
    68  O   -0.797394
    69  O   -0.807656
    70  K    0.865678
    71  K    0.862702
    72  K    0.862424
    73  V    1.186435
 Electronic spatial extent (au):  <R**2>=         317430.4444
 Charge=             -1.0000 electrons
 Dipole moment (field-independent basis, Debye):
    X=             50.2728    Y=            -51.5136    Z=            -39.0170  Tot=             81.8739
 Quadrupole moment (field-independent basis, Debye-Ang):
   XX=          -1044.5964   YY=           -888.9306   ZZ=           -921.4621
   XY=            450.3306   XZ=            451.6441   YZ=           -480.8291
 Traceless Quadrupole moment (field-independent basis, Debye-Ang):
   XX=            -92.9334   YY=             62.7324   ZZ=             30.2009
   XY=            450.3306   XZ=            451.6441   YZ=           -480.8291
 Octapole moment (field-independent basis, Debye-Ang**2):
  XXX=          13246.5830  YYY=          -1089.0071  ZZZ=         -19264.6618  XYY=           6063.1552
  XXY=          -3585.3857  XXZ=          -9330.1923  XZZ=           7283.8136  YZZ=          -4201.1955
  YYZ=          -9054.0875  XYZ=           4757.3066
 Hexadecapole moment (field-independent basis, Debye-Ang**3):
 XXXX=        -156496.3995 YYYY=         -54388.7053 ZZZZ=        -348252.3703 XXXY=          36123.2993
 XXXZ=         121016.2187 YYYX=          21025.7448 YYYZ=         -12979.0334 ZZZX=         127211.0923
 ZZZY=         -35877.8508 XXYY=         -55565.8623 XXZZ=        -106995.8275 YYZZ=        -100077.5252
 XXYZ=         -41588.9580 YYXZ=          61513.6273 ZZXY=          49965.9701
 N-N= 2.095384400402D+04 E-N=-5.899190193912D+04  KE= 6.765170513745D+03
   1 Symmetry operations used in ECPInt.
 ECPInt:  NShTT=  127765 NPrTT=  468030 LenC2=   96387 LenP2D=  220532.
 LDataN:  DoStor=T MaxTD1= 9 Len=  602
 D1PCM: PCM CHGder 1st derivatives, ID1Alg=3 FixD1E=F DoIter=F DoCFld=F I1PDM=0.
 Calling FoFJK, ICntrl=      2127 FMM=T ISym2X=0 I1Cent= 0 IOpClX= 0 NMat=1 NMatS=1 NMatT=0.
 Defaulting to unpruned grid for atomic number  74.
 Defaulting to unpruned grid for atomic number  74.
 Defaulting to unpruned grid for atomic number  74.
 Defaulting to unpruned grid for atomic number  74.
 Defaulting to unpruned grid for atomic number  74.
 Defaulting to unpruned grid for atomic number  74.
 Defaulting to unpruned grid for atomic number  74.
 Defaulting to unpruned grid for atomic number  74.
 Defaulting to unpruned grid for atomic number  74.
 Defaulting to unpruned grid for atomic number  74.
 Defaulting to unpruned grid for atomic number  74.
 Defaulting to unpruned grid for atomic number  74.
 Defaulting to unpruned grid for atomic number  74.
 Defaulting to unpruned grid for atomic number  74.
 Defaulting to unpruned grid for atomic number  74.
 Defaulting to unpruned grid for atomic number  74.
 Defaulting to unpruned grid for atomic number  74.
 Defaulting to unpruned grid for atomic number  74.
 Defaulting to unpruned grid for atomic number  74.
 Defaulting to unpruned grid for atomic number  74.
 Defaulting to unpruned grid for atomic number  74.
 Defaulting to unpruned grid for atomic number  74.
 Defaulting to unpruned grid for atomic number  74.
 Defaulting to unpruned grid for atomic number  74.
 Defaulting to unpruned grid for atomic number  74.
 Defaulting to unpruned grid for atomic number  74.
 Defaulting to unpruned grid for atomic number  74.
 Defaulting to unpruned grid for atomic number  74.
 Defaulting to unpruned grid for atomic number  74.
 Defaulting to unpruned grid for atomic number  74.
 Defaulting to unpruned grid for atomic number  74.
 Defaulting to unpruned grid for atomic number  74.
 Defaulting to unpruned grid for atomic number  74.
 Defaulting to unpruned grid for atomic number  74.
 Defaulting to unpruned grid for atomic number  74.
 Defaulting to unpruned grid for atomic number  74.
 Defaulting to unpruned grid for atomic number  74.
 Defaulting to unpruned grid for atomic number  74.
 Defaulting to unpruned grid for atomic number  74.
 Defaulting to unpruned grid for atomic number  74.
 Defaulting to unpruned grid for atomic number  74.
 Defaulting to unpruned grid for atomic number  74.
 Defaulting to unpruned grid for atomic number  74.
 Defaulting to unpruned grid for atomic number  74.
 Defaulting to unpruned grid for atomic number  74.
 Defaulting to unpruned grid for atomic number  74.
 Defaulting to unpruned grid for atomic number  74.
 Defaulting to unpruned grid for atomic number  74.
 Defaulting to unpruned grid for atomic number  74.
 Defaulting to unpruned grid for atomic number  74.
 Defaulting to unpruned grid for atomic number  74.
 Defaulting to unpruned grid for atomic number  74.
 Defaulting to unpruned grid for atomic number  74.
 Defaulting to unpruned grid for atomic number  74.
 Defaulting to unpruned grid for atomic number  74.
 Defaulting to unpruned grid for atomic number  74.
 -------------------------------------------------------------------
 Center     Atomic                   Forces (Hartrees/Bohr)
 Number     Number              X              Y              Z
 -------------------------------------------------------------------
      1       17          -0.002379942    0.007715665    0.002343472
      2        6          -0.001373489   -0.000565317   -0.001411533
      3        6          -0.000733356   -0.001610228    0.003435019
      4        6           0.001488115    0.001928974    0.000423062
      5        6           0.000888241   -0.000072155    0.001256861
      6        6          -0.000342606   -0.000175656    0.000823535
      7        6          -0.000848523   -0.001323082    0.000520119
      8        1           0.000234720    0.000023863   -0.000075550
      9        1           0.000096068    0.000125006   -0.000223300
     10        1           0.000264108   -0.000570871   -0.000249641
     11        1          -0.000434224    0.000126542    0.000200805
     12        1           0.000391164   -0.000443125    0.000245070
     13        6           0.007884974    0.009851834   -0.006972754
     14        6          -0.002946037   -0.016270032   -0.000583332
     15        1          -0.000985536    0.000455147    0.000453961
     16        1          -0.000535717    0.000230724    0.000224906
     17        1          -0.001713810    0.001414359   -0.000563104
     18        8          -0.003066973    0.000657008    0.000854630
     19        8           0.002988006   -0.000852233    0.000913062
     20        8           0.002474300   -0.002650024   -0.000683983
     21        8          -0.002275725    0.001931552   -0.000884883
     22       74           0.001494861    0.009576960   -0.009389351
     23       74          -0.002285952   -0.009306271   -0.009552574
     24       74           0.006111800    0.007680563    0.009599199
     25       74          -0.006518197   -0.006764908    0.009605025
     26       74           0.007896722   -0.007230158   -0.009959759
     27       74          -0.008013074    0.007839352   -0.009812726
     28       74          -0.011139111    0.002952691    0.010025490
     29       74           0.010562570   -0.001935638    0.009981191
     30        8          -0.000836894   -0.003211840    0.002561570
     31        8           0.000415411    0.003217764    0.002966524
     32        8          -0.002188463   -0.002202835   -0.002840281
     33        8           0.002198446    0.002172512   -0.003119773
     34        8          -0.000971199   -0.000832170    0.003087197
     35        8           0.001235995    0.000303338    0.003253279
     36        8           0.000397677   -0.001275160   -0.003042698
     37        8          -0.000143336    0.001073472   -0.003171812
     38        8          -0.004323717   -0.001354869   -0.001096631
     39        8           0.004393843    0.001477842   -0.001100530
     40        8           0.002358388   -0.005415403    0.000803022
     41        8          -0.001230822    0.004438044    0.000961436
     42        8          -0.002041647   -0.002585469    0.001190430
     43        8           0.002234101    0.002407286    0.000906204
     44        8          -0.000345534   -0.003515393   -0.000581310
     45        8           0.000849055    0.003061931   -0.001164613
     46        8          -0.002320441    0.002500156    0.003189398
     47        8           0.002528603   -0.001899060    0.003394737
     48        8           0.003676159   -0.000820813   -0.003599203
     49        8          -0.003338253    0.000356044   -0.003308820
     50       74           0.013308226    0.004715076    0.002763735
     51       74          -0.013928002   -0.003869782    0.003130321
     52       74          -0.005034590    0.014830263   -0.003012110
     53       74           0.004310017   -0.013643978   -0.002656353
     54        8          -0.000544279    0.001493826    0.002154858
     55        8           0.000651976   -0.001679808    0.002029122
     56        8           0.001887048   -0.000014082   -0.002362810
     57        8          -0.001529532   -0.000606395   -0.001933923
     58        8           0.000167272   -0.002402912    0.001069847
     59        8           0.000353815    0.002447606    0.001588190
     60        8          -0.001608474   -0.001766923   -0.001458256
     61        8           0.001801943    0.001470475   -0.001577250
     62        8          -0.001052065    0.002005589    0.000899875
     63        8           0.001061826   -0.002372024    0.000566381
     64        8           0.002231829   -0.000070784   -0.001099207
     65        8          -0.002507892   -0.000338759   -0.000867652
     66        8          -0.025338061   -0.004657922    0.016209145
     67        8           0.025586311    0.005366051    0.016088940
     68        8           0.010581423   -0.024351825   -0.016330693
     69        8          -0.010439876    0.023224187   -0.016440521
     70       19           0.000253314   -0.000774244   -0.000598152
     71       19           0.001258216    0.000441963    0.001018953
     72       19          -0.000823476   -0.000267374    0.000601507
     73       23          -0.000377720    0.000185856    0.000385009
 -------------------------------------------------------------------
 Cartesian Forces:  Max     0.025586311 RMS     0.005797517

 GradGradGradGradGradGradGradGradGradGradGradGradGradGradGradGradGradGrad
 Berny optimization.
 Search for a local minimum.
 Step number   1 out of a maximum of    2
 All quantities printed in internal units (Hartrees-Bohrs-Radians)
 Second derivative matrix not updated -- first step.
 ITU=  0
     Eigenvalues ---   -0.00000   0.00000   0.00000   0.00010   0.00094
     Eigenvalues ---    0.00095   0.00254   0.00558   0.00619   0.01644
     Eigenvalues ---    0.01951   0.02898   0.02925   0.03186   0.03401
     Eigenvalues ---    0.03424   0.03709   0.03715   0.04156   0.04484
     Eigenvalues ---    0.04577   0.04584   0.04596   0.04817   0.04831
     Eigenvalues ---    0.04991   0.05326   0.05529   0.05545   0.06342
     Eigenvalues ---    0.06377   0.06533   0.06784   0.06862   0.07047
     Eigenvalues ---    0.07308   0.07338   0.07616   0.08307   0.08355
     Eigenvalues ---    0.08684   0.08694   0.08879   0.08901   0.09745
     Eigenvalues ---    0.09847   0.10037   0.10368   0.10406   0.10504
     Eigenvalues ---    0.10744   0.10875   0.11475   0.11519   0.11976
     Eigenvalues ---    0.12007   0.12073   0.12489   0.12540   0.12580
     Eigenvalues ---    0.12620   0.12732   0.12831   0.12983   0.13031
     Eigenvalues ---    0.13801   0.13907   0.14202   0.14367   0.14698
     Eigenvalues ---    0.16685   0.16714   0.16890   0.17162   0.17568
     Eigenvalues ---    0.17657   0.18518   0.19698   0.19836   0.20140
     Eigenvalues ---    0.20721   0.21055   0.21700   0.21749   0.22021
     Eigenvalues ---    0.22364   0.23038   0.23307   0.23772   0.23782
     Eigenvalues ---    0.24511   0.24597   0.24786   0.25584   0.25693
     Eigenvalues ---    0.26077   0.26195   0.27472   0.27561   0.27745
     Eigenvalues ---    0.28282   0.28394   0.28792   0.29498   0.29965
     Eigenvalues ---    0.30514   0.30599   0.30722   0.30752   0.30858
     Eigenvalues ---    0.30945   0.31157   0.31297   0.31560   0.32363
     Eigenvalues ---    0.32509   0.32545   0.32681   0.32895   0.33506
     Eigenvalues ---    0.33593   0.34953   0.35418   0.35682   0.36684
     Eigenvalues ---    0.37374   0.37475   0.37591   0.37980   0.38375
     Eigenvalues ---    0.38670   0.39177   0.40127   0.40188   0.41280
     Eigenvalues ---    0.42189   0.42256   0.43548   0.43707   0.44772
     Eigenvalues ---    0.45340   0.45593   0.45730   0.47113   0.48033
     Eigenvalues ---    0.48281   0.48730   0.48779   0.49487   0.49781
     Eigenvalues ---    0.49827   0.50564   0.51319   0.51438   0.51888
     Eigenvalues ---    0.52909   0.53421   0.54729   0.58938   0.64335
     Eigenvalues ---    0.67552   0.76581   0.81463   0.82722   0.96872
     Eigenvalues ---    0.97273   0.98739   0.99207   1.02236   1.04440
     Eigenvalues ---    1.07127   1.11572   1.12048   1.12292   1.16022
     Eigenvalues ---    1.19435   1.19854   1.20558   1.22714   1.23032
     Eigenvalues ---    1.23369   1.26224   1.26830   1.26922   1.27136
     Eigenvalues ---    1.27700   1.28996   1.29157   1.44898   1.45316
     Eigenvalues ---    1.45432   1.47738   1.51281   1.51511   1.51808
     Eigenvalues ---    1.52466   1.55358   1.55475   1.56238   1.58037
     Eigenvalues ---    1.58283   1.59419   1.61298   1.64295   1.66695
     Eigenvalues ---    1.76903   1.80367   1.82420   1.83095   1.83712
     Eigenvalues ---    1.92239   1.96705   2.70602
 Eigenvalue     1 is  -4.44D-16 should be greater than     0.000000 Eigenvector:
                          Y11       Y12       Y6        Y7        Y10
   1                    0.17441   0.17441   0.17441   0.17441   0.17441
                          Y5        Y2        Y8        Y4        Y3
   1                    0.17441   0.17441   0.17441   0.17441   0.17441
 Eigenvalue     2 is   2.59D-07 Eigenvector:
                          Y16       X16       X11       Y11       Y15
   1                    0.31567  -0.27094   0.26668  -0.23978   0.23155
                          Y14       Z11       X14       Y17       X6
   1                    0.23051  -0.19872  -0.19040   0.18930   0.18500
 Eigenvalue     3 is   2.31D-06 Eigenvector:
                          X9        X10       Y12       Y9        X12
   1                    0.33105   0.29544   0.26831  -0.24848  -0.24683
                          Y8        Y10       X15       X8        X4
   1                    0.24150  -0.22244   0.21481  -0.21450   0.20466
 Quadratic step=2.638D+01 exceeds max=3.000D-01 adjusted using Lamda=-1.097D-02.
 Angle between NR and scaled steps=  36.39 degrees.
 Angle between quadratic step and forces=  66.94 degrees.
 Linear search not attempted -- first point.
 B after Tr=    -0.000155    0.007335    0.001745
         Rot=    1.000000   -0.000166    0.000013    0.000101 Ang=  -0.02 deg.
 Variable       Old X    -DE/DX   Delta X   Delta X   Delta X     New X
                                 (Linear)    (Quad)   (Total)
    X1      -18.35141  -0.00238   0.00000  -0.00228   0.00022 -18.35119
    Y1       15.65179   0.00772   0.00000   0.00777   0.01219  15.66398
    Z1       19.91889   0.00234   0.00000   0.00245   0.00893  19.92782
    X2      -15.87551  -0.00137   0.00000   0.00231   0.00320 -15.87231
    Y2        8.12865  -0.00057   0.00000  -0.01904  -0.01617   8.11248
    Z2       23.04884  -0.00141   0.00000  -0.00082   0.00322  23.05206
    X3      -17.41311  -0.00073   0.00000   0.01217   0.01299 -17.40012
    Y3        7.52081  -0.00161   0.00000  -0.02718  -0.02330   7.49751
    Z3       20.96470   0.00344   0.00000  -0.00350   0.00029  20.96498
    X4      -19.11519   0.00149   0.00000   0.00476   0.00517 -19.11002
    Y4        5.49242   0.00193   0.00000  -0.01191  -0.00777   5.48465
    Z4       21.21730   0.00042   0.00000   0.01376   0.01683  21.23413
    X5      -19.29372   0.00089   0.00000  -0.00082  -0.00075 -19.29447
    Y5        4.14435  -0.00007   0.00000  -0.00645  -0.00302   4.14132
    Z5       23.46916   0.00126   0.00000   0.01848   0.02110  23.49027
    X6      -17.75399  -0.00034   0.00000  -0.01159  -0.01145 -17.76544
    Y6        4.77330  -0.00018   0.00000  -0.00041   0.00203   4.77532
    Z6       25.51607   0.00082   0.00000   0.02239   0.02526  25.54133
    X7      -16.04254  -0.00085   0.00000  -0.00580  -0.00524 -16.04779
    Y7        6.76996  -0.00132   0.00000  -0.00835  -0.00619   6.76377
    Z7       25.29210   0.00052   0.00000   0.00958   0.01316  25.30526
    X8      -14.53517   0.00023   0.00000   0.01035   0.01155 -14.52361
    Y8        9.69212   0.00002   0.00000  -0.02514  -0.02249   9.66963
    Z8       22.92057  -0.00008   0.00000  -0.00656  -0.00198  22.91859
    X9      -20.32933   0.00010   0.00000   0.00902   0.00937 -20.31997
    Y9        4.98911   0.00013   0.00000  -0.01539  -0.01048   4.97863
    Z9       19.62195  -0.00022   0.00000   0.01098   0.01385  19.63580
   X10      -20.64776   0.00026   0.00000   0.00443   0.00418 -20.64358
   Y10        2.59384  -0.00057   0.00000  -0.01219  -0.00855   2.58530
   Z10       23.63380  -0.00025   0.00000   0.01228   0.01435  23.64815
   X11      -17.86830  -0.00043   0.00000  -0.02072  -0.02084 -17.88914
   Y11        3.69932   0.00013   0.00000   0.00892   0.01079   3.71011
   Z11       27.27446   0.00020   0.00000   0.02720   0.02971  27.30417
   X12      -14.83680   0.00039   0.00000   0.00035   0.00096 -14.83583
   Y12        7.28595  -0.00044   0.00000  -0.00980  -0.00841   7.27753
   Z12       26.88723   0.00025   0.00000   0.00654   0.01032  26.89755
   X13      -17.33762   0.00788   0.00000   0.03938   0.04054 -17.29708
   Y13        8.95569   0.00985   0.00000  -0.07249  -0.06783   8.88786
   Z13       18.59898  -0.00697   0.00000  -0.04246  -0.03821  18.56077
   X14      -15.95666  -0.00295   0.00000   0.04968   0.05127 -15.90539
   Y14       11.05840  -0.01627   0.00000  -0.11449  -0.10996  10.94843
   Z14       18.18061  -0.00058   0.00000  -0.07646  -0.07148  18.10913
   X15      -18.56264  -0.00099   0.00000   0.00482   0.00587 -18.55677
   Y15        8.24925   0.00046   0.00000  -0.06240  -0.05699   8.19226
   Z15       17.08578   0.00045   0.00000  -0.01804  -0.01406  17.07172
   X16      -16.00117  -0.00054   0.00000   0.02792   0.02975 -15.97142
   Y16       12.01531   0.00023   0.00000  -0.11242  -0.10727  11.90804
   Z16       16.35659   0.00022   0.00000  -0.07410  -0.06881  16.28778
   X17      -14.63103  -0.00171   0.00000   0.01183   0.01354 -14.61748
   Y17       11.80326   0.00141   0.00000  -0.05784  -0.05404  11.74922
   Z17       19.57160  -0.00056   0.00000  -0.07182  -0.06654  19.50506
   X18       -1.83923  -0.00307   0.00000  -0.01740  -0.01862  -1.85785
   Y18       -3.45631   0.00066   0.00000   0.00439   0.00741  -3.44890
   Z18       14.07888   0.00085   0.00000   0.00986   0.01041  14.08928
   X19      -15.81961   0.00299   0.00000   0.01084   0.00981 -15.80979
   Y19       -2.49210  -0.00085   0.00000   0.00904   0.01488  -2.47722
   Z19       14.09505   0.00091   0.00000   0.01225   0.01276  14.10781
   X20      -13.23666   0.00247   0.00000   0.01104   0.01087 -13.22579
   Y20        2.50830  -0.00265   0.00000  -0.00723  -0.00381   2.50449
   Z20       19.83093  -0.00068   0.00000  -0.00509  -0.00285  19.82807
   X21       -4.39083  -0.00228   0.00000  -0.01077  -0.01312  -4.40395
   Y21       -8.31449   0.00193   0.00000   0.01310   0.01470  -8.29980
   Z21       19.94792  -0.00088   0.00000  -0.01073  -0.01186  19.93606
   X22       -6.36715   0.00149   0.00000  -0.00910  -0.00930  -6.37645
   Y22        1.35591   0.00958   0.00000   0.01498   0.01951   1.37542
   Z22       12.30946  -0.00939   0.00000  -0.00844  -0.00640  12.30305
   X23      -11.33596  -0.00229   0.00000   0.00370   0.00175 -11.33421
   Y23       -7.27639  -0.00931   0.00000   0.00084   0.00633  -7.27006
   Z23       12.43535  -0.00955   0.00000  -0.00555  -0.00652  12.42883
   X24       -6.75431   0.00611   0.00000   0.01351   0.01313  -6.74118
   Y24        1.66676   0.00768   0.00000  -0.00009   0.00144   1.66820
   Z24       21.52567   0.00960   0.00000   0.01187   0.01399  21.53966
   X25      -10.90535  -0.00652   0.00000  -0.01450  -0.01671 -10.92206
   Y25       -7.37116  -0.00676   0.00000   0.00568   0.00802  -7.36314
   Z25       21.65857   0.00961   0.00000   0.00507   0.00408  21.66265
   X26       -4.63310   0.00790   0.00000  -0.00334  -0.00479  -4.63789
   Y26       -4.88876  -0.00723   0.00000  -0.00622  -0.00194  -4.89070
   Z26       12.03342  -0.00996   0.00000  -0.00461  -0.00462  12.02881
   X27      -13.02873  -0.00801   0.00000  -0.00534  -0.00602 -13.03474
   Y27       -1.03564   0.00784   0.00000   0.02369   0.02967  -1.00596
   Z27       11.98770  -0.00981   0.00000  -0.00293  -0.00186  11.98584
   X28      -12.79830  -0.01114   0.00000  -0.00938  -0.01021 -12.80851
   Y28       -0.51436   0.00295   0.00000  -0.00219   0.00044  -0.51391
   Z28       21.91834   0.01003   0.00000   0.00727   0.00851  21.92685
   X29       -4.83537   0.01056   0.00000   0.00889   0.00712  -4.82825
   Y29       -5.18760  -0.00194   0.00000   0.00752   0.00852  -5.17909
   Z29       21.97410   0.00998   0.00000   0.00549   0.00538  21.97948
   X30       -5.89963  -0.00084   0.00000   0.00384   0.00415  -5.89547
   Y30        3.62224  -0.00321   0.00000  -0.00021   0.00496   3.62720
   Z30       10.11471   0.00256   0.00000  -0.01013  -0.00733  10.10738
   X31      -11.61216   0.00042   0.00000  -0.00886  -0.01123 -11.62339
   Y31       -9.63894   0.00322   0.00000   0.00945   0.01571  -9.62323
   Z31       10.27931   0.00297   0.00000  -0.00199  -0.00375  10.27556
   X32       -5.00389  -0.00219   0.00000   0.00119   0.00108  -5.00281
   Y32        3.26189  -0.00220   0.00000   0.00279   0.00325   3.26515
   Z32       23.69435  -0.00284   0.00000   0.00876   0.01146  23.70581
   X33      -12.62457   0.00220   0.00000  -0.00287  -0.00545 -12.63002
   Y33       -8.91700   0.00217   0.00000   0.00116   0.00310  -8.91390
   Z33       23.88262  -0.00312   0.00000  -0.00019  -0.00174  23.88088
   X34       -5.02146  -0.00097   0.00000  -0.01146  -0.01224  -5.03370
   Y34       -1.71178  -0.00083   0.00000  -0.00068   0.00416  -1.70763
   Z34       10.55821   0.00309   0.00000   0.01166   0.01270  10.57091
   X35      -12.63571   0.00124   0.00000   0.00618   0.00488 -12.63084
   Y35       -4.31376   0.00030   0.00000   0.01584   0.02219  -4.29157
   Z35       10.62485   0.00325   0.00000   0.01368   0.01367  10.63851
   X36       -9.95108   0.00040   0.00000   0.00319   0.00263  -9.94845
   Y36        1.01449  -0.00128   0.00000  -0.01004  -0.00847   1.00602
   Z36       23.36466  -0.00304   0.00000  -0.00617  -0.00435  23.36031
   X37       -7.66440  -0.00014   0.00000  -0.00319  -0.00532  -7.66971
   Y37       -6.71223   0.00107   0.00000   0.01163   0.01272  -6.69951
   Z37       23.44708  -0.00317   0.00000  -0.01144  -0.01213  23.43495
   X38        0.66447  -0.00432   0.00000   0.00100   0.00035   0.66482
   Y38       -0.17264  -0.00135   0.00000   0.00144   0.00282  -0.16982
   Z38       17.50971  -0.00110   0.00000  -0.00129   0.00041  17.51012
   X39      -18.32874   0.00439   0.00000  -0.00553  -0.00728 -18.33602
   Y39       -5.65966   0.00148   0.00000   0.01082   0.01600  -5.64366
   Z39       17.60845  -0.00110   0.00000  -0.00034  -0.00095  17.60750
   X40      -12.06123   0.00236   0.00000   0.01425   0.01498 -12.04626
   Y40        6.43883  -0.00542   0.00000   0.01127   0.01558   6.45440
   Z40       16.40922   0.00080   0.00000   0.00910   0.01268  16.42189
   X41       -5.60919  -0.00123   0.00000  -0.00224  -0.00530  -5.61449
   Y41      -12.27190   0.00444   0.00000   0.00406   0.00703 -12.26487
   Z41       16.52773   0.00096   0.00000  -0.00115  -0.00364  16.52409
   X42       -3.30964  -0.00204   0.00000  -0.01601  -0.01625  -3.32589
   Y42        1.37712  -0.00259   0.00000  -0.00159   0.00171   1.37883
   Z42       14.15105   0.00119   0.00000   0.00929   0.01141  14.16246
   X43      -14.36405   0.00223   0.00000   0.00986   0.00785 -14.35620
   Y43       -7.33210   0.00241   0.00000   0.01526   0.02075  -7.31135
   Z43       14.27352   0.00091   0.00000   0.00805   0.00699  14.28050
   X44       -8.46084  -0.00035   0.00000   0.00683   0.00700  -8.45384
   Y44        4.14298  -0.00352   0.00000  -0.01332  -0.01083   4.13215
   Z44       19.69672  -0.00058   0.00000   0.00066   0.00356  19.70027
   X45       -9.18645   0.00085   0.00000  -0.00726  -0.00994  -9.19639
   Y45       -9.91232   0.00306   0.00000   0.01838   0.02097  -9.89135
   Z45       19.86813  -0.00116   0.00000  -0.01006  -0.01185  19.85628
   X46       -3.07696  -0.00232   0.00000  -0.00070  -0.00246  -3.07942
   Y46       -6.65210   0.00250   0.00000   0.00637   0.01106  -6.64105
   Z46        9.84527   0.00319   0.00000  -0.00079  -0.00134   9.84393
   X47      -14.67776   0.00253   0.00000  -0.01137  -0.01168 -14.68944
   Y47        0.48394  -0.00190   0.00000   0.01235   0.01942   0.50336
   Z47        9.71885   0.00339   0.00000   0.00589   0.00742   9.72627
   X48      -15.08832   0.00368   0.00000  -0.00119  -0.00204 -15.09036
   Y48       -0.32094  -0.00082   0.00000   0.00548   0.00783  -0.31312
   Z48       24.15744  -0.00360   0.00000   0.00227   0.00352  24.16096
   X49       -2.51213  -0.00334   0.00000   0.00142  -0.00047  -2.51260
   Y49       -5.43155   0.00036   0.00000  -0.00505  -0.00525  -5.43680
   Z49       24.17752  -0.00331   0.00000   0.00017   0.00003  24.17755
   X50       -2.29602   0.01331   0.00000   0.00382   0.00300  -2.29302
   Y50       -1.11853   0.00472   0.00000   0.00803   0.01027  -1.10826
   Z50       16.70000   0.00276   0.00000   0.01215   0.01347  16.71347
   X51      -15.36913  -0.01393   0.00000  -0.00907  -0.01062 -15.37975
   Y51       -4.73346  -0.00387   0.00000   0.00484   0.00970  -4.72376
   Z51       16.77152   0.00313   0.00000   0.01269   0.01246  16.78398
   X52      -11.13400  -0.00503   0.00000   0.00311   0.00322 -11.13078
   Y52        3.47334   0.01483   0.00000   0.01566   0.01956   3.49290
   Z52       17.10812  -0.00301   0.00000  -0.00622  -0.00360  17.10452
   X53       -6.53671   0.00431   0.00000  -0.00379  -0.00627  -6.54298
   Y53       -9.29742  -0.01364   0.00000  -0.00251   0.00039  -9.29703
   Z53       17.30618  -0.00266   0.00000  -0.01218  -0.01370  17.29248
   X54       -7.97622  -0.00054   0.00000  -0.00083  -0.00248  -7.97870
   Y54       -5.90526   0.00149   0.00000  -0.00193   0.00321  -5.90205
   Z54       11.45957   0.00215   0.00000  -0.00583  -0.00626  11.45331
   X55       -9.68060   0.00065   0.00000  -0.00664  -0.00710  -9.68770
   Y55       -0.09954  -0.00168   0.00000   0.01759   0.02310  -0.07644
   Z55       11.37208   0.00203   0.00000  -0.00539  -0.00392  11.36816
   X56      -11.64160   0.00189   0.00000  -0.00961  -0.01113 -11.65273
   Y56       -3.82888  -0.00001   0.00000   0.00037   0.00256  -3.82632
   Z56       22.53431  -0.00236   0.00000   0.00582   0.00599  22.54030
   X57       -5.95523  -0.00153   0.00000   0.01007   0.00895  -5.94628
   Y57       -1.87947  -0.00061   0.00000   0.00363   0.00467  -1.87480
   Z57       22.52795  -0.00193   0.00000   0.01027   0.01123  22.53918
   X58       -8.19942   0.00017   0.00000  -0.00254  -0.00247  -8.20189
   Y58        2.98838  -0.00240   0.00000   0.01427   0.01833   3.00671
   Z58       14.83875   0.00107   0.00000  -0.00727  -0.00474  14.83401
   X59       -9.44872   0.00035   0.00000   0.00016  -0.00218  -9.45090
   Y59       -8.89154   0.00245   0.00000  -0.00032   0.00395  -8.88759
   Z59       14.96747   0.00159   0.00000  -0.00694  -0.00840  14.95908
   X60       -4.31831  -0.00161   0.00000   0.00982   0.00938  -4.30893
   Y60        1.03799  -0.00177   0.00000   0.00367   0.00554   1.04353
   Z60       19.03618  -0.00146   0.00000   0.01111   0.01309  19.04927
   X61      -13.33033   0.00180   0.00000  -0.01216  -0.01420 -13.34453
   Y61       -6.84675   0.00147   0.00000   0.00543   0.00909  -6.83766
   Z61       19.14586  -0.00158   0.00000   0.00631   0.00544  19.15130
   X62       -4.85179  -0.00105   0.00000  -0.00255  -0.00459  -4.85638
   Y62       -7.40080   0.00201   0.00000  -0.00255   0.00083  -7.39997
   Z62       14.83618   0.00090   0.00000  -0.00771  -0.00855  14.82762
   X63      -12.83919   0.00106   0.00000  -0.00090  -0.00113 -12.84032
   Y63        1.47933  -0.00237   0.00000   0.01779   0.02282   1.50215
   Z63       14.74151   0.00057   0.00000  -0.00422  -0.00231  14.73920
   X64      -14.75251   0.00223   0.00000  -0.00844  -0.00954 -14.76205
   Y64       -2.22698  -0.00007   0.00000   0.00317   0.00710  -2.21988
   Z64       19.19941  -0.00110   0.00000   0.00916   0.00978  19.20919
   X65       -2.90588  -0.00251   0.00000   0.00511   0.00374  -2.90214
   Y65       -3.58271  -0.00034   0.00000   0.00590   0.00744  -3.57527
   Z65       19.17999  -0.00087   0.00000   0.00785   0.00833  19.18832
   X66       -6.31705  -0.02534   0.00000  -0.04791  -0.04891  -6.36596
   Y66       -2.20893  -0.00466   0.00000  -0.00121   0.00236  -2.20657
   Z66       15.14309   0.01621   0.00000   0.02762   0.02846  15.17155
   X67      -11.34305   0.02559   0.00000   0.04147   0.04017 -11.30288
   Y67       -3.72069   0.00537   0.00000   0.01700   0.02156  -3.69913
   Z67       15.18666   0.01609   0.00000   0.02866   0.02888  15.21554
   X68       -9.62607   0.01058   0.00000   0.02000   0.01927  -9.60680
   Y68       -0.41694  -0.02435   0.00000  -0.03642  -0.03339  -0.45033
   Z68       18.79725  -0.01633   0.00000  -0.02483  -0.02348  18.77376
   X69       -7.99513  -0.01044   0.00000  -0.02184  -0.02357  -8.01869
   Y69       -5.39966   0.02322   0.00000   0.04386   0.04656  -5.35311
   Z69       18.85041  -0.01644   0.00000  -0.02680  -0.02704  18.82337
   X70       -6.09633   0.00025   0.00000  -0.00179  -0.00457  -6.10091
   Y70      -11.62558  -0.00077   0.00000  -0.00197   0.00305 -11.62253
   Z70       10.67387  -0.00060   0.00000  -0.00833  -0.01062  10.66325
   X71       -0.23106   0.00126   0.00000   0.01130   0.01053  -0.22053
   Y71       -0.06434   0.00044   0.00000   0.00333   0.00295  -0.06138
   Z71       23.28566   0.00102   0.00000   0.01069   0.01241  23.29807
   X72      -17.57269  -0.00082   0.00000  -0.01141  -0.01325 -17.58594
   Y72       -5.33186  -0.00027   0.00000   0.00366   0.00676  -5.32510
   Z72       23.42123   0.00060   0.00000   0.00755   0.00707  23.42829
   X73       -8.82425  -0.00038   0.00000  -0.00255  -0.00373  -8.82798
   Y73       -2.92864   0.00019   0.00000   0.00575   0.00922  -2.91941
   Z73       16.98918   0.00039   0.00000   0.00176   0.00230  16.99148
         Item               Value     Threshold  Converged?
 Maximum Force            0.025586     0.000450     NO 
 RMS     Force            0.005798     0.000300     NO 
 Maximum Displacement     0.109963     0.001800     NO 
 RMS     Displacement     0.020106     0.001200     NO 
 Predicted change in Energy=-5.462389D-03
 GradGradGradGradGradGradGradGradGradGradGradGradGradGradGradGradGradGrad

 Unable to Open any file for archive entry.
 1\1\GINC-X11P1N2\Force\RwB97XD\def2SVP\C8H8Cl1K3O40V1W12(1-)\MAYUMIAO\
 03-Jun-2024\0\\# def2svp wb97xd scrf=(smd,solvent=acetonitrile) g09def
 ault scf=(xqc,maxcycle=64) force guess=read nosymm\\Title Card\\-1,1\C
 l,-9.71114549,8.28256849,10.54062114\C,-8.40095692,4.30149557,12.19692
 268\C,-9.2146191,3.97984253,11.09404021\C,-10.11532065,2.90646535,11.2
 2771164\C,-10.20979924,2.19309433,12.41934639\C,-9.39500944,2.52592027
 ,13.50252187\C,-8.48934756,3.58250901,13.3840049\H,-7.69167874,5.12884
 978,12.12904558\H,-10.75781868,2.64012341,10.38349068\H,-10.92632297,1
 .37260269,12.5064707\H,-9.45549714,1.95759495,14.43302323\H,-7.8512943
 6,3.85555693,14.22810811\C,-9.17467529,4.73914745,9.84215731\C,-8.4438
 9897,5.85185132,9.62076453\H,-9.82292783,4.36531353,9.04140547\H,-8.46
 745505,6.35822788,8.65553437\H,-7.74240529,6.24601589,10.35684369\O,-0
 .97327611,-1.82900037,7.45022198\O,-8.37137448,-1.31876029,7.45877949\
 O,-7.00453695,1.3273369,10.49407469\O,-2.32352617,-4.39984112,10.55598
 657\W,-3.36935254,0.71751775,6.51388324\W,-5.99873064,-3.85050202,6.58
 050168\W,-3.57422747,0.88200969,11.39089195\W,-5.77086192,-3.9006502,1
 1.46121974\W,-2.45172943,-2.5870193,6.36781236\W,-6.89450491,-0.548034
 9,6.34361945\W,-6.77256914,-0.27218546,11.59868491\W,-2.5587674,-2.745
 16222,11.62819201\O,-3.12194772,1.91680669,5.35247422\O,-6.14488901,-5
 .10070691,5.43957915\O,-2.64794596,1.72611982,12.53850754\O,-6.6806355
 3,-4.71867065,12.63813653\O,-2.65724351,-0.90583597,5.58716254\O,-6.68
 653215,-2.28274261,5.62242682\O,-5.26588595,0.53684419,12.36404564\O,-
 4.05582563,-3.55195876,12.40766005\O,0.35162379,-0.09135736,9.265737\O
 ,-9.69915,-2.99496444,9.31799002\O,-6.38252944,3.40728043,8.68338277\O
 ,-2.96825434,-6.4940092,8.74609787\O,-1.75138834,0.72874306,7.48841482
 \O,-7.60112924,-3.87997921,7.55322051\O,-4.47728313,2.19237273,10.4230
 5341\O,-4.86125931,-5.24537224,10.51376112\O,-1.62825951,-3.52014089,5
 .20989359\O,-7.76713564,0.25609102,5.14299486\O,-7.98439755,-0.1698352
 4,12.78356744\O,-1.32935994,-2.87425036,12.79419076\W,-1.21500332,-0.5
 9190193,8.83726186\W,-8.13299126,-2.50483935,8.87510613\W,-5.89185789,
 1.83800982,9.05322961\W,-3.45907748,-4.91998339,9.15803805\O,-4.220831
 48,-3.12492771,6.06414328\O,-5.12275301,-0.05267681,6.01784497\O,-6.16
 047011,-2.02615698,11.92464157\O,-3.15137159,-0.99457355,11.92127817\O
 ,-4.33894777,1.58138195,7.85232982\O,-5.00004856,-4.70520002,7.9204452
 8\O,-2.28515173,0.54928,10.07351395\O,-7.05410675,-3.62314274,10.13155
 491\O,-2.56745786,-3.9163356,7.85096599\O,-6.79420602,0.78282905,7.800
 8715\O,-7.80669163,-1.17846543,10.15989131\O,-1.53772433,-1.89588885,1
 0.14961257\O,-3.34283887,-1.16891713,8.01337641\O,-6.00248399,-1.96890
 695,8.03643634\O,-5.09389767,-0.22063444,9.947074\O,-4.23083877,-2.857
 37905,9.97520908\K,-3.2260413,-6.15199215,5.64836799\K,-0.12227015,-0.
 03404586,12.32224139\K,-9.2990665,-2.82149684,12.39398046\V,-4.6695922
 3,-1.54976704,8.99028613\\Version=ES64L-G16RevC.01\HF=-7327.7023127\RM
 SD=1.961e-09\RMSF=5.798e-03\Dipole=10.034354,-22.0629208,2.3411438\Qua
 drupole=-69.0936767,46.6400269,22.4536499,334.8097714,335.7863047,-357
 .4846525\PG=C01 [X(C8H8Cl1K3O40V1W12)]\\@
 The archive entry for this job was punched.


 THE MOST INCOMPREHENSIBLE THING ABOUT THE WORLD
 IS THAT IT IS COMPREHENSIBLE. -- A. EINSTEIN
 Job cpu time:       0 days  9 hours 21 minutes 12.3 seconds.
 Elapsed time:       0 days  0 hours 10 minutes 38.6 seconds.
 File lengths (MBytes):  RWF=   1259 Int=      0 D2E=      0 Chk=    249 Scr=      1
 Normal termination of Gaussian 16 at Mon Jun  3 08:13:32 2024.
