 Entering Gaussian System, Link 0=g16
 Input=JOBS/75_A.gjf
 Output=JOBS/75_A.log
 Initial command:
 /data/app/gaussian/C01-avx2//g16/l1.exe "/tmp/Gau-725206.inp" -scrdir="/tmp/"
 Entering Link 1 = /data/app/gaussian/C01-avx2//g16/l1.exe PID=    725207.
  
 Copyright (c) 1988-2019, Gaussian, Inc.  All Rights Reserved.
  
 This is part of the Gaussian(R) 16 program.  It is based on
 the Gaussian(R) 09 system (copyright 2009, Gaussian, Inc.),
 the Gaussian(R) 03 system (copyright 2003, Gaussian, Inc.),
 the Gaussian(R) 98 system (copyright 1998, Gaussian, Inc.),
 the Gaussian(R) 94 system (copyright 1995, Gaussian, Inc.),
 the Gaussian 92(TM) system (copyright 1992, Gaussian, Inc.),
 the Gaussian 90(TM) system (copyright 1990, Gaussian, Inc.),
 the Gaussian 88(TM) system (copyright 1988, Gaussian, Inc.),
 the Gaussian 86(TM) system (copyright 1986, Carnegie Mellon
 University), and the Gaussian 82(TM) system (copyright 1983,
 Carnegie Mellon University). Gaussian is a federally registered
 trademark of Gaussian, Inc.
  
 This software contains proprietary and confidential information,
 including trade secrets, belonging to Gaussian, Inc.
  
 This software is provided under written license and may be
 used, copied, transmitted, or stored only in accord with that
 written license.
  
 The following legend is applicable only to US Government
 contracts under FAR:
  
                    RESTRICTED RIGHTS LEGEND
  
 Use, reproduction and disclosure by the US Government is
 subject to restrictions as set forth in subparagraphs (a)
 and (c) of the Commercial Computer Software - Restricted
 Rights clause in FAR 52.227-19.
  
 Gaussian, Inc.
 340 Quinnipiac St., Bldg. 40, Wallingford CT 06492
  
  
 ---------------------------------------------------------------
 Warning -- This program may not be used in any manner that
 competes with the business of Gaussian, Inc. or will provide
 assistance to any competitor of Gaussian, Inc.  The licensee
 of this program is prohibited from giving any competitor of
 Gaussian, Inc. access to this program.  By using this program,
 the user acknowledges that Gaussian, Inc. is engaged in the
 business of creating and licensing software in the field of
 computational chemistry and represents and warrants to the
 licensee that it is not a competitor of Gaussian, Inc. and that
 it will not use this program in any manner prohibited above.
 ---------------------------------------------------------------
  

 Cite this work as:
 Gaussian 16, Revision C.01,
 M. J. Frisch, G. W. Trucks, H. B. Schlegel, G. E. Scuseria, 
 M. A. Robb, J. R. Cheeseman, G. Scalmani, V. Barone, 
 G. A. Petersson, H. Nakatsuji, X. Li, M. Caricato, A. V. Marenich, 
 J. Bloino, B. G. Janesko, R. Gomperts, B. Mennucci, H. P. Hratchian, 
 J. V. Ortiz, A. F. Izmaylov, J. L. Sonnenberg, D. Williams-Young, 
 F. Ding, F. Lipparini, F. Egidi, J. Goings, B. Peng, A. Petrone, 
 T. Henderson, D. Ranasinghe, V. G. Zakrzewski, J. Gao, N. Rega, 
 G. Zheng, W. Liang, M. Hada, M. Ehara, K. Toyota, R. Fukuda, 
 J. Hasegawa, M. Ishida, T. Nakajima, Y. Honda, O. Kitao, H. Nakai, 
 T. Vreven, K. Throssell, J. A. Montgomery, Jr., J. E. Peralta, 
 F. Ogliaro, M. J. Bearpark, J. J. Heyd, E. N. Brothers, K. N. Kudin, 
 V. N. Staroverov, T. A. Keith, R. Kobayashi, J. Normand, 
 K. Raghavachari, A. P. Rendell, J. C. Burant, S. S. Iyengar, 
 J. Tomasi, M. Cossi, J. M. Millam, M. Klene, C. Adamo, R. Cammi, 
 J. W. Ochterski, R. L. Martin, K. Morokuma, O. Farkas, 
 J. B. Foresman, and D. J. Fox, Gaussian, Inc., Wallingford CT, 2019.
 
 ******************************************
 Gaussian 16:  ES64L-G16RevC.01  3-Jul-2019
                 3-Jun-2024 
 ******************************************
 %chk=a.chk
 %nprocshared=56
 Will use up to   56 processors via shared memory.
 %mem=96gb
 ----------------------------------------------------------------------
 # def2svp wb97xd scrf=(smd,solvent=acetonitrile) g09default scf=(xqc,m
 axcycle=64) force guess=read nosymm
 ----------------------------------------------------------------------
 1/10=7,30=1,38=1,158=3,167=1/1,3;
 2/12=2,15=1,17=6,18=5,40=1/2;
 3/5=43,7=101,11=2,25=1,27=10,30=1,70=32201,71=1,72=2,74=-58,75=-4,116=-2,158=3/1,2,3;
 4/5=1,60=-1/1;
 5/5=2,7=64,8=3,13=1,38=6,53=2,87=10/2,8;
 6/7=2,8=2,9=2,10=2,28=1,87=10/1;
 7/29=1,30=1,87=10/1,2,3,16;
 1/10=7,30=1,158=3,167=1/3;
 99//99;
 Using 2006 physical constants.
 ----------
 Title Card
 ----------
 Symbolic Z-matrix:
 Charge = -1 Multiplicity = 1
 17                   -9.71525   8.28345   10.54133 
 6                    -8.40291   4.30339   12.19681 
 6                    -9.21802   3.98265   11.09475 
 6                    -10.11758   2.90826   11.22833 
 6                    -10.20976   2.19335   12.41926 
 6                    -9.39418   2.52592   13.50188 
 6                    -8.48914   3.58302   13.38322 
 1                    -7.69393   5.13093   12.12847 
 1                    -10.76054   2.64171   10.38453 
 1                    -10.92471   1.37145   12.50613 
 1                    -9.45342   1.95687   14.43201 
 1                    -7.84948   3.85492   14.22646 
 6                    -9.17869   4.74263   9.84318 
 6                    -8.44431   5.85248   9.61979 
 1                    -9.83017   4.37158   9.0438 
 1                    -8.46687   6.35742   8.65376 
 1                    -7.74042   6.24518   10.3544 
 8                    -0.97297  -1.82963   7.44975 
 8                    -8.37117  -1.3184    7.45849 
 8                    -7.00423   1.32675   10.49472 
 8                    -2.32293  -4.40038   10.55612 
 74                   -3.36863   0.71766   6.51471 
 74                   -5.99916  -3.85087   6.58139 
 74                   -3.57335   0.88189   11.39055 
 74                   -5.77074  -3.9016    11.46017 
 74                   -2.45219  -2.58715   6.367 
 74                   -6.89365  -0.54804   6.34328 
 74                   -6.77144  -0.27279   11.59957 
 74                   -2.55888  -2.7454    11.62869 
 8                    -3.12076   1.91712   5.35351 
 8                    -6.14578  -5.10118   5.44082 
 8                    -2.64684   1.72649   12.53767 
 8                    -6.68048  -4.72005   12.63673 
 8                    -2.65671  -0.90562   5.58719 
 8                    -6.68617  -2.28286   5.62266 
 8                    -5.26506   0.53663   12.36448 
 8                    -4.05573  -3.55281   12.40744 
 8                     0.35254  -0.09359   9.2655 
 8                    -9.69951  -2.99301   9.31836 
 8                    -6.3835    3.40675   8.68434 
 8                    -2.96656  -6.49386   8.74579 
 8                    -1.75075   0.72833   7.48908 
 8                    -7.60153  -3.87975   7.55362 
 8                    -4.47707   2.19209   10.4232 
 8                    -4.86074  -5.24594   10.51302 
 8                    -1.62924  -3.52034   5.20871 
 8                    -7.76579   0.25616   5.14247 
 8                    -7.98313  -0.17099   12.78467 
 8                    -1.32934  -2.87481   12.79452 
 74                   -1.2145   -0.59339   8.83701 
 74                   -8.13325  -2.50374   8.87524 
 74                   -5.89205   1.83749   9.05382 
 74                   -3.4577   -4.92004   9.15789 
 8                    -4.22098  -3.12487   6.0641 
 8                    -5.12199  -0.05278   6.01801 
 8                    -6.15965  -2.02677   11.92425 
 8                    -3.15091  -0.99487   11.92195 
 8                    -4.33874   1.58124   7.85277 
 8                    -4.99958  -4.70498   7.92064 
 8                    -2.28473   0.54839   10.0735 
 8                    -7.05409  -3.62313   10.1311 
 8                    -2.56683  -3.91634   7.85066 
 8                    -6.79382   0.78241   7.80111 
 8                    -7.80622  -1.17818   10.16008 
 8                    -1.53798  -1.89683   10.14955 
 8                    -3.34266  -1.16932   8.01324 
 8                    -6.00233  -1.96889   8.03669 
 8                    -5.09334  -0.22106   9.94743 
 8                    -4.23029  -2.85771   9.97519 
 19                   -3.2264   -6.15265   5.64833 
 19                   -0.12076  -0.03647   12.32363 
 19                   -9.29993  -2.82188   12.39294 
 23                   -4.66919  -1.55001   8.9904 
 

 GradGradGradGradGradGradGradGradGradGradGradGradGradGradGradGradGradGrad
 Berny optimization.
 Initialization pass.
 Trust Radius=3.00D-01 FncErr=1.00D-07 GrdErr=1.00D-07 EigMax=2.50D+02 EigMin=1.00D-04
 Number of steps in this run=      2 maximum allowed number of steps=      2.
 GradGradGradGradGradGradGradGradGradGradGradGradGradGradGradGradGradGrad

 Symmetry turned off by external request.
 Stoichiometry    C8H8ClK3O40VW12(1-)
 Framework group  C1[X(C8H8ClK3O40VW12)]
 Deg. of freedom   213
 Full point group                 C1      NOp   1
                          Input orientation:                          
 ---------------------------------------------------------------------
 Center     Atomic      Atomic             Coordinates (Angstroms)
 Number     Number       Type             X           Y           Z
 ---------------------------------------------------------------------
      1         17           0       -9.715254    8.283453   10.541332
      2          6           0       -8.402914    4.303395   12.196806
      3          6           0       -9.218017    3.982646   11.094747
      4          6           0      -10.117582    2.908264   11.228332
      5          6           0      -10.209760    2.193355   12.419260
      6          6           0       -9.394179    2.525917   13.501882
      7          6           0       -8.489140    3.583016   13.383219
      8          1           0       -7.693928    5.130933   12.128470
      9          1           0      -10.760540    2.641706   10.384533
     10          1           0      -10.924713    1.371447   12.506128
     11          1           0       -9.453423    1.956868   14.432012
     12          1           0       -7.849481    3.854916   14.226457
     13          6           0       -9.178687    4.742625    9.843181
     14          6           0       -8.444307    5.852476    9.619791
     15          1           0       -9.830170    4.371577    9.043804
     16          1           0       -8.466874    6.357420    8.653760
     17          1           0       -7.740424    6.245178   10.354402
     18          8           0       -0.972969   -1.829628    7.449754
     19          8           0       -8.371170   -1.318402    7.458488
     20          8           0       -7.004232    1.326751   10.494721
     21          8           0       -2.322928   -4.400384   10.556122
     22         74           0       -3.368633    0.717658    6.514706
     23         74           0       -5.999159   -3.850875    6.581390
     24         74           0       -3.573352    0.881894   11.390545
     25         74           0       -5.770737   -3.901596   11.460173
     26         74           0       -2.452186   -2.587150    6.366996
     27         74           0       -6.893651   -0.548043    6.343284
     28         74           0       -6.771445   -0.272794   11.599574
     29         74           0       -2.558877   -2.745405   11.628689
     30          8           0       -3.120759    1.917118    5.353507
     31          8           0       -6.145776   -5.101178    5.440819
     32          8           0       -2.646838    1.726492   12.537674
     33          8           0       -6.680484   -4.720046   12.636725
     34          8           0       -2.656713   -0.905619    5.587195
     35          8           0       -6.686173   -2.282855    5.622664
     36          8           0       -5.265058    0.536628   12.364475
     37          8           0       -4.055728   -3.552809   12.407435
     38          8           0        0.352536   -0.093586    9.265495
     39          8           0       -9.699508   -2.993013    9.318361
     40          8           0       -6.383502    3.406747    8.684337
     41          8           0       -2.966556   -6.493862    8.745785
     42          8           0       -1.750748    0.728328    7.489081
     43          8           0       -7.601531   -3.879746    7.553621
     44          8           0       -4.477065    2.192092   10.423198
     45          8           0       -4.860741   -5.245936   10.513016
     46          8           0       -1.629238   -3.520341    5.208710
     47          8           0       -7.765793    0.256157    5.142475
     48          8           0       -7.983129   -0.170988   12.784671
     49          8           0       -1.329336   -2.874809   12.794523
     50         74           0       -1.214503   -0.593393    8.837013
     51         74           0       -8.133249   -2.503741    8.875242
     52         74           0       -5.892049    1.837487    9.053819
     53         74           0       -3.457696   -4.920044    9.157886
     54          8           0       -4.220985   -3.124874    6.064103
     55          8           0       -5.121987   -0.052780    6.018012
     56          8           0       -6.159647   -2.026771   11.924253
     57          8           0       -3.150906   -0.994872   11.921952
     58          8           0       -4.338736    1.581241    7.852772
     59          8           0       -4.999578   -4.704976    7.920638
     60          8           0       -2.284727    0.548390   10.073499
     61          8           0       -7.054085   -3.623128   10.131101
     62          8           0       -2.566829   -3.916344    7.850664
     63          8           0       -6.793823    0.782409    7.801111
     64          8           0       -7.806221   -1.178178   10.160083
     65          8           0       -1.537984   -1.896825   10.149550
     66          8           0       -3.342656   -1.169319    8.013239
     67          8           0       -6.002334   -1.968893    8.036691
     68          8           0       -5.093344   -0.221064    9.947429
     69          8           0       -4.230288   -2.857708    9.975195
     70         19           0       -3.226399   -6.152648    5.648329
     71         19           0       -0.120761   -0.036472   12.323633
     72         19           0       -9.299926   -2.821885   12.392943
     73         23           0       -4.669192   -1.550009    8.990397
 ---------------------------------------------------------------------
 Rotational constants (GHZ):           0.0171959           0.0131689           0.0129491
 Standard basis: def2SVP (5D, 7F)
  1217 basis functions,  2313 primitive gaussians,  1337 cartesian basis functions
   321 alpha electrons      321 beta electrons
       nuclear repulsion energy     20953.2397758583 Hartrees.
 NAtoms=   73 NActive=   73 NUniq=   73 SFac= 1.00D+00 NAtFMM=   60 NAOKFM=T Big=T
 Integral buffers will be    131072 words long.
 Raffenetti 2 integral format.
 Two-electron integral symmetry is turned off.
 Nuclear repulsion after empirical dispersion term =    20952.9638069388 Hartrees.
 Force PCM accuracy= 1.00D-10.
 ------------------------------------------------------------------------------
 Polarizable Continuum Model (PCM)
 =================================
 Model                : PCM (using non-symmetric T matrix).
 Atomic radii         : SMD-Coulomb.
 Polarization charges : Total charges.
 Charge compensation  : None.
 Solution method      : On-the-fly selection.
 Cavity type          : VdW (van der Waals Surface) (Alpha=1.000).
 Cavity algorithm     : GePol (No added spheres)
                        Default sphere list used, NSphG=   73.
                        Lebedev-Laikov grids with approx.  5.0 points / Ang**2.
                        Smoothing algorithm: York/Karplus (Gamma=1.0000).
                        Polarization charges: spherical gaussians, with
                                              point-specific exponents (IZeta= 3).
                        Self-potential: point-specific (ISelfS= 7).
                        Self-field    : sphere-specific E.n sum rule (ISelfD= 2).
 1st derivatives      : Analytical E(r).r(x)/FMM algorithm (CHGder, D1EAlg=3).
                        Cavity 1st derivative terms included.
 Solvent              : Acetonitrile, Eps=  35.688000 Eps(inf)=   1.806874
 ------------------------------------------------------------------------------
 ------------------------------------------------------------------------------
 Atomic radii for non-electrostatic terms: SMD-CDS.
 ------------------------------------------------------------------------------
 Nuclear repulsion after PCM non-electrostatic terms =    20952.9580105356 Hartrees.
 One-electron integrals computed using PRISM.
   1 Symmetry operations used in ECPInt.
 ECPInt:  NShTT=  127765 NPrTT=  468030 LenC2=   96380 LenP2D=  220512.
 LDataN:  DoStor=T MaxTD1= 8 Len=  415
 NBasis=  1217 RedAO= T EigKep=  1.38D-04  NBF=  1217
 NBsUse=  1217 1.00D-06 EigRej= -1.00D+00 NBFU=  1217
 Defaulting to unpruned grid for atomic number  74.
 Defaulting to unpruned grid for atomic number  74.
 Defaulting to unpruned grid for atomic number  74.
 Defaulting to unpruned grid for atomic number  74.
 Defaulting to unpruned grid for atomic number  74.
 Defaulting to unpruned grid for atomic number  74.
 Defaulting to unpruned grid for atomic number  74.
 Defaulting to unpruned grid for atomic number  74.
 Initial guess from the checkpoint file:  "a.chk"
 B after Tr=     0.000313    0.000338    0.000193
         Rot=    1.000000   -0.000031   -0.000005    0.000016 Ang=  -0.00 deg.
 Requested convergence on RMS density matrix=1.00D-08 within  64 cycles.
 Requested convergence on MAX density matrix=1.00D-06.
 Requested convergence on             energy=1.00D-06.
 No special actions if energy rises.
 Defaulting to unpruned grid for atomic number  74.
 Defaulting to unpruned grid for atomic number  74.
 Defaulting to unpruned grid for atomic number  74.
 Defaulting to unpruned grid for atomic number  74.
 Defaulting to unpruned grid for atomic number  74.
 Defaulting to unpruned grid for atomic number  74.
 Defaulting to unpruned grid for atomic number  74.
 Defaulting to unpruned grid for atomic number  74.
 Defaulting to unpruned grid for atomic number  74.
 Defaulting to unpruned grid for atomic number  74.
 Defaulting to unpruned grid for atomic number  74.
 Defaulting to unpruned grid for atomic number  74.
 Defaulting to unpruned grid for atomic number  74.
 Defaulting to unpruned grid for atomic number  74.
 Defaulting to unpruned grid for atomic number  74.
 Defaulting to unpruned grid for atomic number  74.
 Defaulting to unpruned grid for atomic number  74.
 Defaulting to unpruned grid for atomic number  74.
 Defaulting to unpruned grid for atomic number  74.
 Defaulting to unpruned grid for atomic number  74.
 Defaulting to unpruned grid for atomic number  74.
 Defaulting to unpruned grid for atomic number  74.
 Defaulting to unpruned grid for atomic number  74.
 Defaulting to unpruned grid for atomic number  74.
 Defaulting to unpruned grid for atomic number  74.
 Defaulting to unpruned grid for atomic number  74.
 Defaulting to unpruned grid for atomic number  74.
 Defaulting to unpruned grid for atomic number  74.
 Defaulting to unpruned grid for atomic number  74.
 Defaulting to unpruned grid for atomic number  74.
 Defaulting to unpruned grid for atomic number  74.
 Defaulting to unpruned grid for atomic number  74.
 Defaulting to unpruned grid for atomic number  74.
 Defaulting to unpruned grid for atomic number  74.
 Defaulting to unpruned grid for atomic number  74.
 Defaulting to unpruned grid for atomic number  74.
 Defaulting to unpruned grid for atomic number  74.
 Defaulting to unpruned grid for atomic number  74.
 Defaulting to unpruned grid for atomic number  74.
 Defaulting to unpruned grid for atomic number  74.
 Defaulting to unpruned grid for atomic number  74.
 Defaulting to unpruned grid for atomic number  74.
 Defaulting to unpruned grid for atomic number  74.
 Defaulting to unpruned grid for atomic number  74.
 Defaulting to unpruned grid for atomic number  74.
 Defaulting to unpruned grid for atomic number  74.
 Defaulting to unpruned grid for atomic number  74.
 Defaulting to unpruned grid for atomic number  74.
 Defaulting to unpruned grid for atomic number  74.
 Defaulting to unpruned grid for atomic number  74.
 Defaulting to unpruned grid for atomic number  74.
 Defaulting to unpruned grid for atomic number  74.
 Defaulting to unpruned grid for atomic number  74.
 Defaulting to unpruned grid for atomic number  74.
 Defaulting to unpruned grid for atomic number  74.
 Defaulting to unpruned grid for atomic number  74.
 Inv3:  Mode=1 IEnd=    87706947.
 Iteration    1 A*A^-1 deviation from unit magnitude is 3.22D-15 for   2078.
 Iteration    1 A*A^-1 deviation from orthogonality  is 3.12D-15 for   4823   3040.
 Iteration    1 A^-1*A deviation from unit magnitude is 4.22D-15 for   5060.
 Iteration    1 A^-1*A deviation from orthogonality  is 4.70D-11 for   4034   4022.
 Error on total polarization charges =  0.01623
 SCF Done:  E(RwB97XD) =  -7327.70232887     A.U. after   11 cycles
            NFock= 11  Conv=0.32D-08     -V/T= 2.0832
 SMD-CDS (non-electrostatic) energy       (kcal/mol) =      -3.64
 (included in total energy above)
 QCSCF skips out because SCF is already converged.

 **********************************************************************

            Population analysis using the SCF Density.

 **********************************************************************

 Alpha  occ. eigenvalues -- -197.29325-130.00131-130.00045-130.00023-101.48283
 Alpha  occ. eigenvalues --  -22.62463 -19.33620 -19.33612 -19.33607 -19.33586
 Alpha  occ. eigenvalues --  -19.30728 -19.30689 -19.30687 -19.30678 -19.30664
 Alpha  occ. eigenvalues --  -19.30658 -19.30649 -19.30635 -19.30585 -19.30365
 Alpha  occ. eigenvalues --  -19.30339 -19.30176 -19.29382 -19.29366 -19.29361
 Alpha  occ. eigenvalues --  -19.29348 -19.29339 -19.29318 -19.29310 -19.29285
 Alpha  occ. eigenvalues --  -19.29244 -19.29232 -19.29217 -19.29210 -19.29196
 Alpha  occ. eigenvalues --  -19.29161 -19.29132 -19.29121 -19.29120 -19.29119
 Alpha  occ. eigenvalues --  -19.29111 -19.29094 -19.29046 -19.29007 -19.28978
 Alpha  occ. eigenvalues --  -19.28906 -19.11418 -19.11410 -19.11401 -13.37533
 Alpha  occ. eigenvalues --  -13.37438 -13.37419 -10.70463 -10.70456 -10.70455
 Alpha  occ. eigenvalues --  -10.70369 -10.70362 -10.70358 -10.70350 -10.70343
 Alpha  occ. eigenvalues --  -10.70342 -10.29892 -10.29325 -10.29312 -10.29053
 Alpha  occ. eigenvalues --  -10.29006 -10.28922 -10.28239 -10.27487  -9.38753
 Alpha  occ. eigenvalues --   -7.13583  -7.13527  -7.13524  -3.23293  -3.23281
 Alpha  occ. eigenvalues --   -3.23278  -3.23276  -3.23259  -3.23231  -3.23229
 Alpha  occ. eigenvalues --   -3.23225  -3.23212  -3.22944  -3.22932  -3.22761
 Alpha  occ. eigenvalues --   -2.91746  -1.94136  -1.94106  -1.94096  -1.87704
 Alpha  occ. eigenvalues --   -1.87649  -1.87640  -1.87607  -1.87479  -1.87458
 Alpha  occ. eigenvalues --   -1.87449  -1.87439  -1.87415  -1.87260  -1.87231
 Alpha  occ. eigenvalues --   -1.87088  -1.86621  -1.86501  -1.86491  -1.86477
 Alpha  occ. eigenvalues --   -1.86443  -1.86423  -1.86335  -1.86305  -1.86295
 Alpha  occ. eigenvalues --   -1.86286  -1.86265  -1.86255  -1.86136  -1.86122
 Alpha  occ. eigenvalues --   -1.86108  -1.86095  -1.86028  -1.86011  -1.85981
 Alpha  occ. eigenvalues --   -1.85907  -1.85884  -1.85788  -1.85713  -1.85657
 Alpha  occ. eigenvalues --   -1.51221  -1.51130  -1.51117  -1.13020  -1.11245
 Alpha  occ. eigenvalues --   -1.11161  -1.11157  -1.08968  -1.08530  -1.08498
 Alpha  occ. eigenvalues --   -1.08307  -1.07555  -1.07486  -1.07479  -1.06896
 Alpha  occ. eigenvalues --   -1.06884  -1.06865  -1.06287  -1.06265  -1.05362
 Alpha  occ. eigenvalues --   -1.05356  -1.04974  -1.04969  -1.04953  -1.04236
 Alpha  occ. eigenvalues --   -1.04227  -1.04191  -1.04045  -1.04013  -1.03993
 Alpha  occ. eigenvalues --   -1.03936  -1.03920  -1.03891  -1.03762  -1.03748
 Alpha  occ. eigenvalues --   -1.03615  -1.03571  -1.03303  -1.03271  -1.03164
 Alpha  occ. eigenvalues --   -1.03144  -1.03082  -1.02996  -0.94374  -0.86686
 Alpha  occ. eigenvalues --   -0.86604  -0.86594  -0.86524  -0.86496  -0.86495
 Alpha  occ. eigenvalues --   -0.86421  -0.86399  -0.86392  -0.86385  -0.82814
 Alpha  occ. eigenvalues --   -0.79748  -0.71505  -0.69669  -0.68016  -0.64577
 Alpha  occ. eigenvalues --   -0.63948  -0.63882  -0.63863  -0.63274  -0.63259
 Alpha  occ. eigenvalues --   -0.63148  -0.62972  -0.62665  -0.62599  -0.61935
 Alpha  occ. eigenvalues --   -0.61599  -0.61579  -0.61480  -0.61224  -0.61204
 Alpha  occ. eigenvalues --   -0.61164  -0.60421  -0.59462  -0.59439  -0.59418
 Alpha  occ. eigenvalues --   -0.59372  -0.59343  -0.58691  -0.58008  -0.57976
 Alpha  occ. eigenvalues --   -0.57894  -0.57059  -0.57035  -0.56999  -0.56260
 Alpha  occ. eigenvalues --   -0.56236  -0.56093  -0.55707  -0.54867  -0.54805
 Alpha  occ. eigenvalues --   -0.54767  -0.54531  -0.54236  -0.54116  -0.54101
 Alpha  occ. eigenvalues --   -0.54029  -0.53963  -0.53269  -0.53229  -0.53094
 Alpha  occ. eigenvalues --   -0.53053  -0.52913  -0.52739  -0.52706  -0.52657
 Alpha  occ. eigenvalues --   -0.52621  -0.52515  -0.52460  -0.52423  -0.51625
 Alpha  occ. eigenvalues --   -0.51605  -0.51382  -0.51343  -0.51319  -0.51258
 Alpha  occ. eigenvalues --   -0.51189  -0.51165  -0.50989  -0.50804  -0.50623
 Alpha  occ. eigenvalues --   -0.50599  -0.50597  -0.49963  -0.49947  -0.49293
 Alpha  occ. eigenvalues --   -0.49261  -0.49242  -0.49214  -0.49162  -0.49088
 Alpha  occ. eigenvalues --   -0.48906  -0.48080  -0.48036  -0.47923  -0.47645
 Alpha  occ. eigenvalues --   -0.47396  -0.47294  -0.47249  -0.47046  -0.46979
 Alpha  occ. eigenvalues --   -0.46924  -0.46637  -0.46630  -0.46458  -0.46216
 Alpha  occ. eigenvalues --   -0.46162  -0.46123  -0.45679  -0.45108  -0.44933
 Alpha  occ. eigenvalues --   -0.44900  -0.44200  -0.44157  -0.44040  -0.43553
 Alpha  occ. eigenvalues --   -0.43325  -0.43284  -0.43145  -0.43140  -0.43100
 Alpha  occ. eigenvalues --   -0.42778  -0.42752  -0.42718  -0.42627  -0.42610
 Alpha  occ. eigenvalues --   -0.42542  -0.42503  -0.42490  -0.42315  -0.42308
 Alpha  occ. eigenvalues --   -0.42281  -0.42063  -0.41924  -0.41884  -0.41871
 Alpha  occ. eigenvalues --   -0.41273  -0.41255  -0.41202  -0.41116  -0.40602
 Alpha  occ. eigenvalues --   -0.40589  -0.40577  -0.40341  -0.39455  -0.39445
 Alpha  occ. eigenvalues --   -0.37090  -0.32576  -0.29232  -0.25065  -0.25036
 Alpha  occ. eigenvalues --   -0.23436
 Alpha virt. eigenvalues --   -0.09371  -0.09169  -0.08289  -0.08243  -0.06859
 Alpha virt. eigenvalues --   -0.06832  -0.06733  -0.04384  -0.04100  -0.04045
 Alpha virt. eigenvalues --   -0.03723  -0.03498  -0.03436  -0.03218  -0.03062
 Alpha virt. eigenvalues --   -0.03020  -0.02997  -0.02235  -0.02191  -0.02164
 Alpha virt. eigenvalues --   -0.01466  -0.01441  -0.01388  -0.01289  -0.01214
 Alpha virt. eigenvalues --   -0.00029  -0.00012   0.00034   0.01398   0.01417
 Alpha virt. eigenvalues --    0.01872   0.01918   0.02001   0.02130   0.02187
 Alpha virt. eigenvalues --    0.02208   0.02264   0.02326   0.02779   0.02851
 Alpha virt. eigenvalues --    0.02933   0.02999   0.03033   0.04388   0.04544
 Alpha virt. eigenvalues --    0.06738   0.07227   0.07431   0.07476   0.07704
 Alpha virt. eigenvalues --    0.08001   0.08485   0.08505   0.08764   0.09134
 Alpha virt. eigenvalues --    0.09302   0.09361   0.09636   0.09837   0.10165
 Alpha virt. eigenvalues --    0.10233   0.10278   0.10300   0.10354   0.10623
 Alpha virt. eigenvalues --    0.10882   0.11038   0.11063   0.11619   0.11716
 Alpha virt. eigenvalues --    0.12194   0.13111   0.13210   0.13322   0.13606
 Alpha virt. eigenvalues --    0.13746   0.14438   0.14542   0.14646   0.14973
 Alpha virt. eigenvalues --    0.15476   0.16115   0.16324   0.16524   0.16680
 Alpha virt. eigenvalues --    0.16702   0.16902   0.17044   0.17208   0.17627
 Alpha virt. eigenvalues --    0.17881   0.18120   0.18180   0.18369   0.18535
 Alpha virt. eigenvalues --    0.18711   0.18884   0.19170   0.19293   0.19479
 Alpha virt. eigenvalues --    0.19523   0.20065   0.20227   0.20348   0.20577
 Alpha virt. eigenvalues --    0.20664   0.20834   0.20914   0.21229   0.21321
 Alpha virt. eigenvalues --    0.21378   0.21488   0.21601   0.21883   0.22041
 Alpha virt. eigenvalues --    0.22435   0.22693   0.22842   0.23155   0.23198
 Alpha virt. eigenvalues --    0.23400   0.23751   0.23920   0.24216   0.24545
 Alpha virt. eigenvalues --    0.24781   0.25208   0.25458   0.25614   0.25920
 Alpha virt. eigenvalues --    0.26039   0.26153   0.26416   0.26482   0.26753
 Alpha virt. eigenvalues --    0.26952   0.27244   0.27341   0.27413   0.27639
 Alpha virt. eigenvalues --    0.27978   0.28211   0.28285   0.28457   0.28675
 Alpha virt. eigenvalues --    0.28965   0.29605   0.29878   0.30429   0.30470
 Alpha virt. eigenvalues --    0.30684   0.30920   0.31204   0.31456   0.31778
 Alpha virt. eigenvalues --    0.32201   0.34757   0.35132   0.35826   0.36278
 Alpha virt. eigenvalues --    0.36573   0.36868   0.37160   0.38067   0.38400
 Alpha virt. eigenvalues --    0.38613   0.39122   0.39452   0.39581   0.40202
 Alpha virt. eigenvalues --    0.40645   0.40826   0.40915   0.41111   0.41640
 Alpha virt. eigenvalues --    0.42053   0.42203   0.42614   0.43254   0.43419
 Alpha virt. eigenvalues --    0.43668   0.44377   0.44655   0.44750   0.45103
 Alpha virt. eigenvalues --    0.45648   0.46231   0.46447   0.46654   0.47115
 Alpha virt. eigenvalues --    0.47351   0.47604   0.47834   0.47974   0.48158
 Alpha virt. eigenvalues --    0.48320   0.48433   0.48516   0.48650   0.48891
 Alpha virt. eigenvalues --    0.49109   0.49295   0.49414   0.49756   0.49851
 Alpha virt. eigenvalues --    0.50164   0.50266   0.50478   0.50895   0.51108
 Alpha virt. eigenvalues --    0.51597   0.51764   0.51906   0.52301   0.52435
 Alpha virt. eigenvalues --    0.52616   0.52837   0.53013   0.53108   0.53277
 Alpha virt. eigenvalues --    0.53523   0.53889   0.54153   0.54279   0.54425
 Alpha virt. eigenvalues --    0.55010   0.55449   0.55620   0.56330   0.56461
 Alpha virt. eigenvalues --    0.56778   0.57341   0.57530   0.58063   0.58292
 Alpha virt. eigenvalues --    0.58573   0.59076   0.59413   0.60258   0.60786
 Alpha virt. eigenvalues --    0.61481   0.62096   0.62650   0.62731   0.63124
 Alpha virt. eigenvalues --    0.64152   0.65275   0.65657   0.65750   0.65866
 Alpha virt. eigenvalues --    0.66117   0.66408   0.66938   0.67326   0.67394
 Alpha virt. eigenvalues --    0.67838   0.68134   0.69493   0.70142   0.71155
 Alpha virt. eigenvalues --    0.71395   0.71966   0.72157   0.72290   0.72307
 Alpha virt. eigenvalues --    0.72575   0.72712   0.73140   0.73292   0.73955
 Alpha virt. eigenvalues --    0.74580   0.74766   0.75362   0.75647   0.75766
 Alpha virt. eigenvalues --    0.76174   0.76654   0.76929   0.77177   0.77393
 Alpha virt. eigenvalues --    0.78155   0.78564   0.78998   0.79431   0.79536
 Alpha virt. eigenvalues --    0.79853   0.80210   0.80421   0.80727   0.81299
 Alpha virt. eigenvalues --    0.81505   0.81604   0.81985   0.82446   0.83098
 Alpha virt. eigenvalues --    0.83763   0.84170   0.84598   0.85477   0.86101
 Alpha virt. eigenvalues --    0.86946   0.87242   0.87920   0.88012   0.88583
 Alpha virt. eigenvalues --    0.88785   0.89039   0.89412   0.89496   0.90193
 Alpha virt. eigenvalues --    0.90472   0.90716   0.91129   0.91255   0.91590
 Alpha virt. eigenvalues --    0.92423   0.92839   0.93308   0.93885   0.94113
 Alpha virt. eigenvalues --    0.94312   0.94887   0.95605   0.95980   0.96558
 Alpha virt. eigenvalues --    0.96889   0.97064   0.97229   0.97800   0.97926
 Alpha virt. eigenvalues --    0.98158   0.98274   0.98461   0.98612   0.98734
 Alpha virt. eigenvalues --    0.98900   0.99427   0.99995   1.00023   1.00168
 Alpha virt. eigenvalues --    1.00808   1.01214   1.01453   1.01511   1.01705
 Alpha virt. eigenvalues --    1.01956   1.02122   1.02321   1.02501   1.02664
 Alpha virt. eigenvalues --    1.02885   1.03407   1.03528   1.03653   1.04051
 Alpha virt. eigenvalues --    1.04251   1.04355   1.04473   1.04730   1.04858
 Alpha virt. eigenvalues --    1.05029   1.05202   1.05271   1.05425   1.05824
 Alpha virt. eigenvalues --    1.05926   1.06344   1.06865   1.07058   1.07164
 Alpha virt. eigenvalues --    1.07501   1.07973   1.08722   1.08848   1.09169
 Alpha virt. eigenvalues --    1.09276   1.09732   1.09958   1.10036   1.10193
 Alpha virt. eigenvalues --    1.10708   1.10826   1.10907   1.10991   1.11217
 Alpha virt. eigenvalues --    1.11442   1.11614   1.11730   1.11929   1.12350
 Alpha virt. eigenvalues --    1.12689   1.13409   1.13721   1.14074   1.14780
 Alpha virt. eigenvalues --    1.15254   1.15747   1.16179   1.16280   1.16647
 Alpha virt. eigenvalues --    1.17186   1.17559   1.17958   1.18526   1.19009
 Alpha virt. eigenvalues --    1.20147   1.20495   1.20891   1.21083   1.21158
 Alpha virt. eigenvalues --    1.21318   1.21693   1.21995   1.22780   1.23517
 Alpha virt. eigenvalues --    1.24914   1.25732   1.25930   1.26322   1.26579
 Alpha virt. eigenvalues --    1.27032   1.27793   1.28241   1.28536   1.28594
 Alpha virt. eigenvalues --    1.28751   1.28835   1.29023   1.29221   1.29968
 Alpha virt. eigenvalues --    1.30114   1.30301   1.30527   1.30694   1.30787
 Alpha virt. eigenvalues --    1.31040   1.31919   1.32182   1.32748   1.32929
 Alpha virt. eigenvalues --    1.33120   1.33435   1.33647   1.33797   1.34040
 Alpha virt. eigenvalues --    1.34182   1.34374   1.34433   1.34579   1.34683
 Alpha virt. eigenvalues --    1.35047   1.35083   1.35612   1.35862   1.36010
 Alpha virt. eigenvalues --    1.36169   1.36312   1.36612   1.36726   1.36767
 Alpha virt. eigenvalues --    1.36994   1.37286   1.37477   1.37598   1.37793
 Alpha virt. eigenvalues --    1.37945   1.38283   1.38431   1.38711   1.38919
 Alpha virt. eigenvalues --    1.39226   1.39556   1.39676   1.39795   1.39955
 Alpha virt. eigenvalues --    1.40361   1.40436   1.40551   1.40767   1.40987
 Alpha virt. eigenvalues --    1.41112   1.41159   1.41429   1.41839   1.41956
 Alpha virt. eigenvalues --    1.42346   1.42612   1.43066   1.43169   1.43280
 Alpha virt. eigenvalues --    1.43571   1.43893   1.44256   1.44362   1.45459
 Alpha virt. eigenvalues --    1.46005   1.46287   1.47539   1.47576   1.47702
 Alpha virt. eigenvalues --    1.48176   1.48274   1.49256   1.49803   1.49973
 Alpha virt. eigenvalues --    1.50304   1.50823   1.51305   1.51719   1.52908
 Alpha virt. eigenvalues --    1.53271   1.55430   1.55693   1.55745   1.55798
 Alpha virt. eigenvalues --    1.55988   1.56231   1.56554   1.56598   1.57183
 Alpha virt. eigenvalues --    1.57271   1.57793   1.58423   1.58869   1.59070
 Alpha virt. eigenvalues --    1.59460   1.59956   1.60141   1.60426   1.60508
 Alpha virt. eigenvalues --    1.60589   1.61092   1.61999   1.62173   1.62773
 Alpha virt. eigenvalues --    1.63832   1.64199   1.64894   1.65384   1.66988
 Alpha virt. eigenvalues --    1.67721   1.68068   1.69556   1.70592   1.70852
 Alpha virt. eigenvalues --    1.71323   1.71652   1.72429   1.73430   1.73930
 Alpha virt. eigenvalues --    1.74908   1.75058   1.75192   1.75611   1.76378
 Alpha virt. eigenvalues --    1.76434   1.76613   1.77139   1.77342   1.78385
 Alpha virt. eigenvalues --    1.78517   1.78761   1.78857   1.80095   1.80259
 Alpha virt. eigenvalues --    1.81293   1.81392   1.81902   1.82218   1.82835
 Alpha virt. eigenvalues --    1.82896   1.83331   1.83722   1.83869   1.84422
 Alpha virt. eigenvalues --    1.85100   1.85281   1.85553   1.85905   1.86183
 Alpha virt. eigenvalues --    1.86544   1.87019   1.87357   1.88068   1.88389
 Alpha virt. eigenvalues --    1.89269   1.89877   1.90159   1.90245   1.90494
 Alpha virt. eigenvalues --    1.90830   1.91248   1.91482   1.92341   1.93310
 Alpha virt. eigenvalues --    1.94790   1.95128   1.95295   1.95445   1.95902
 Alpha virt. eigenvalues --    1.98081   1.99077   1.99320   1.99395   2.04436
 Alpha virt. eigenvalues --    2.06274   2.06666   2.08070   2.08201   2.08505
 Alpha virt. eigenvalues --    2.08669   2.09113   2.09523   2.10089   2.10677
 Alpha virt. eigenvalues --    2.11344   2.11888   2.12426   2.14782   2.15430
 Alpha virt. eigenvalues --    2.15925   2.16633   2.17125   2.17335   2.17694
 Alpha virt. eigenvalues --    2.20001   2.20393   2.20509   2.20809   2.20997
 Alpha virt. eigenvalues --    2.21126   2.22065   2.23832   2.25169   2.25551
 Alpha virt. eigenvalues --    2.26077   2.26332   2.26914   2.27988   2.28434
 Alpha virt. eigenvalues --    2.28699   2.29348   2.29743   2.33469   2.35427
 Alpha virt. eigenvalues --    2.36499   2.38964   2.40782   2.40977   2.43505
 Alpha virt. eigenvalues --    2.44145   2.50614   2.51713   2.57273   2.64863
 Alpha virt. eigenvalues --    2.64915   2.65080   2.65872   2.66100   2.66538
 Alpha virt. eigenvalues --    2.66759   2.66816   2.66894   2.67004   2.67014
 Alpha virt. eigenvalues --    2.67106   2.67209   2.67304   2.67340   2.67378
 Alpha virt. eigenvalues --    2.67650   2.67680   2.67849   2.67880   2.67941
 Alpha virt. eigenvalues --    2.68775   2.68932   2.69189   2.69305   2.69993
 Alpha virt. eigenvalues --    2.70095   2.70163   2.70344   2.70490   2.70627
 Alpha virt. eigenvalues --    2.70670   2.71315   2.71458   2.71491   2.71542
 Alpha virt. eigenvalues --    2.71659   2.71844   2.72421   2.72660   2.72859
 Alpha virt. eigenvalues --    2.72970   2.73060   2.73167   2.73260   2.73306
 Alpha virt. eigenvalues --    2.73391   2.73658   2.73791   2.73845   2.74000
 Alpha virt. eigenvalues --    2.74075   2.74196   2.74364   2.74558   2.74699
 Alpha virt. eigenvalues --    2.74772   2.74911   2.75084   2.75570   2.76054
 Alpha virt. eigenvalues --    2.76148   2.76230   2.76398   2.76708   2.76893
 Alpha virt. eigenvalues --    2.76993   2.77050   2.77082   2.78280   2.78402
 Alpha virt. eigenvalues --    2.78611   2.78749   2.79894   2.80168   2.80274
 Alpha virt. eigenvalues --    2.81028   2.81575   2.81620   2.81849   2.82100
 Alpha virt. eigenvalues --    2.82145   2.82720   2.83020   2.83270   2.83683
 Alpha virt. eigenvalues --    2.83773   2.83940   2.84036   2.84208   2.84963
 Alpha virt. eigenvalues --    2.85492   2.86033   2.86089   2.86479   2.86534
 Alpha virt. eigenvalues --    2.86648   2.86722   2.86844   2.87678   2.88219
 Alpha virt. eigenvalues --    2.88481   2.88699   2.89485   2.89535   2.89629
 Alpha virt. eigenvalues --    2.89812   2.89840   2.89986   2.90262   2.90344
 Alpha virt. eigenvalues --    2.90404   2.91576   2.91747   2.91815   2.91958
 Alpha virt. eigenvalues --    2.92237   2.92437   2.92663   2.92994   2.93127
 Alpha virt. eigenvalues --    2.93243   2.93470   2.93668   2.93878   2.94126
 Alpha virt. eigenvalues --    2.94192   2.95067   2.95278   2.95450   2.95729
 Alpha virt. eigenvalues --    2.95832   2.95910   2.96369   2.96563   2.96668
 Alpha virt. eigenvalues --    2.96731   2.96872   2.96917   2.97138   2.97421
 Alpha virt. eigenvalues --    2.97542   2.97690   2.97901   2.98298   2.99052
 Alpha virt. eigenvalues --    2.99255   2.99610   2.99751   2.99852   3.00088
 Alpha virt. eigenvalues --    3.00355   3.00526   3.01156   3.01338   3.01631
 Alpha virt. eigenvalues --    3.02782   3.03279   3.03410   3.03774   3.04680
 Alpha virt. eigenvalues --    3.06087   3.06290   3.06698   3.11030   3.11166
 Alpha virt. eigenvalues --    3.11257   3.11344   3.12029   3.12392   3.13571
 Alpha virt. eigenvalues --    3.13666   3.13805   3.16751   3.20008   3.21731
 Alpha virt. eigenvalues --    3.21850   3.23848   3.32525   3.40412   3.40894
 Alpha virt. eigenvalues --    3.41384   3.42226   3.43987   3.44096   3.45097
 Alpha virt. eigenvalues --    3.45443   3.45589   3.46609   3.46705   3.47180
 Alpha virt. eigenvalues --    3.48430   3.50666   3.51379   3.51763   3.53057
 Alpha virt. eigenvalues --    3.53244   3.53839   3.54296   3.54686   3.54898
 Alpha virt. eigenvalues --    3.54988   3.55031   3.55227   3.55895   3.57173
 Alpha virt. eigenvalues --    3.57288   3.57778   3.59104   3.59330   3.59883
 Alpha virt. eigenvalues --    3.60403   3.60932   3.61284   3.61601   3.62116
 Alpha virt. eigenvalues --    3.69700   3.74779  68.64735  68.65705  68.66840
 Alpha virt. eigenvalues --   68.69033  68.72757  68.73953  68.81614  68.82544
 Alpha virt. eigenvalues --   68.83032  68.85930  68.87063  68.88117 576.23157
 Alpha virt. eigenvalues --  576.24104 576.25218 576.27359 576.31096 576.32279
 Alpha virt. eigenvalues --  576.39791 576.40698 576.41172 576.43975 576.45078
 Alpha virt. eigenvalues --  576.46126
          Condensed to atoms (all electrons):
 Mulliken charges:
               1
     1  Cl  -0.898805
     2  C   -0.081982
     3  C    0.046596
     4  C   -0.081389
     5  C   -0.034731
     6  C   -0.033034
     7  C   -0.048278
     8  H    0.028583
     9  H    0.029544
    10  H    0.041430
    11  H    0.037438
    12  H    0.039533
    13  C   -0.127944
    14  C    0.036560
    15  H    0.019140
    16  H    0.035865
    17  H    0.029219
    18  O   -0.660706
    19  O   -0.659130
    20  O   -0.654554
    21  O   -0.661356
    22  W    1.728564
    23  W    1.668699
    24  W    1.680337
    25  W    1.691435
    26  W    1.671259
    27  W    1.723908
    28  W    1.612931
    29  W    1.680245
    30  O   -0.320366
    31  O   -0.365456
    32  O   -0.365923
    33  O   -0.357332
    34  O   -0.661216
    35  O   -0.669201
    36  O   -0.658908
    37  O   -0.661211
    38  O   -0.366542
    39  O   -0.366717
    40  O   -0.299178
    41  O   -0.364851
    42  O   -0.668392
    43  O   -0.661455
    44  O   -0.657349
    45  O   -0.664630
    46  O   -0.367037
    47  O   -0.320457
    48  O   -0.360011
    49  O   -0.364468
    50  W    1.667858
    51  W    1.672681
    52  W    1.682001
    53  W    1.679611
    54  O   -0.721979
    55  O   -0.704769
    56  O   -0.723370
    57  O   -0.720831
    58  O   -0.702799
    59  O   -0.723920
    60  O   -0.722278
    61  O   -0.717745
    62  O   -0.722399
    63  O   -0.704666
    64  O   -0.723453
    65  O   -0.724512
    66  O   -0.800655
    67  O   -0.799794
    68  O   -0.797418
    69  O   -0.807690
    70  K    0.865749
    71  K    0.862835
    72  K    0.862475
    73  V    1.186392
 Sum of Mulliken charges =  -1.00000
 Mulliken charges with hydrogens summed into heavy atoms:
               1
     1  Cl  -0.898805
     2  C   -0.053400
     3  C    0.046596
     4  C   -0.051846
     5  C    0.006699
     6  C    0.004404
     7  C   -0.008745
    13  C   -0.108804
    14  C    0.101643
    18  O   -0.660706
    19  O   -0.659130
    20  O   -0.654554
    21  O   -0.661356
    22  W    1.728564
    23  W    1.668699
    24  W    1.680337
    25  W    1.691435
    26  W    1.671259
    27  W    1.723908
    28  W    1.612931
    29  W    1.680245
    30  O   -0.320366
    31  O   -0.365456
    32  O   -0.365923
    33  O   -0.357332
    34  O   -0.661216
    35  O   -0.669201
    36  O   -0.658908
    37  O   -0.661211
    38  O   -0.366542
    39  O   -0.366717
    40  O   -0.299178
    41  O   -0.364851
    42  O   -0.668392
    43  O   -0.661455
    44  O   -0.657349
    45  O   -0.664630
    46  O   -0.367037
    47  O   -0.320457
    48  O   -0.360011
    49  O   -0.364468
    50  W    1.667858
    51  W    1.672681
    52  W    1.682001
    53  W    1.679611
    54  O   -0.721979
    55  O   -0.704769
    56  O   -0.723370
    57  O   -0.720831
    58  O   -0.702799
    59  O   -0.723920
    60  O   -0.722278
    61  O   -0.717745
    62  O   -0.722399
    63  O   -0.704666
    64  O   -0.723453
    65  O   -0.724512
    66  O   -0.800655
    67  O   -0.799794
    68  O   -0.797418
    69  O   -0.807690
    70  K    0.865749
    71  K    0.862835
    72  K    0.862475
    73  V    1.186392
 Electronic spatial extent (au):  <R**2>=         317443.6357
 Charge=             -1.0000 electrons
 Dipole moment (field-independent basis, Debye):
    X=             50.2940    Y=            -51.5436    Z=            -39.0181  Tot=             81.9063
 Quadrupole moment (field-independent basis, Debye-Ang):
   XX=          -1044.9422   YY=           -889.0659   ZZ=           -921.4703
   XY=            450.7224   XZ=            451.9727   YZ=           -481.1760
 Traceless Quadrupole moment (field-independent basis, Debye-Ang):
   XX=            -93.1160   YY=             62.7602   ZZ=             30.3558
   XY=            450.7224   XZ=            451.9727   YZ=           -481.1760
 Octapole moment (field-independent basis, Debye-Ang**2):
  XXX=          13251.3323  YYY=          -1090.9701  ZZZ=         -19264.7454  XYY=           6065.7287
  XXY=          -3590.5474  XXZ=          -9334.7534  XZZ=           7288.3324  YZZ=          -4205.2100
  YYZ=          -9056.1994  XYZ=           4761.6882
 Hexadecapole moment (field-independent basis, Debye-Ang**3):
 XXXX=        -156564.1411 YYYY=         -54411.7534 ZZZZ=        -348253.8224 XXXY=          36192.0136
 XXXZ=         121076.0044 YYYX=          21061.0771 YYYZ=         -13000.9155 ZZZX=         127272.2872
 ZZZY=         -35924.7386 XXYY=         -55606.9668 XXZZ=        -107054.7431 YYZZ=        -100106.8460
 XXYZ=         -41647.1723 YYXZ=          61545.9165 ZZXY=          50016.7776
 N-N= 2.095295801054D+04 E-N=-5.899012507514D+04  KE= 6.765171006950D+03
   1 Symmetry operations used in ECPInt.
 ECPInt:  NShTT=  127765 NPrTT=  468030 LenC2=   96380 LenP2D=  220512.
 LDataN:  DoStor=T MaxTD1= 9 Len=  602
 D1PCM: PCM CHGder 1st derivatives, ID1Alg=3 FixD1E=F DoIter=F DoCFld=F I1PDM=0.
 Calling FoFJK, ICntrl=      2127 FMM=T ISym2X=0 I1Cent= 0 IOpClX= 0 NMat=1 NMatS=1 NMatT=0.
 Defaulting to unpruned grid for atomic number  74.
 Defaulting to unpruned grid for atomic number  74.
 Defaulting to unpruned grid for atomic number  74.
 Defaulting to unpruned grid for atomic number  74.
 Defaulting to unpruned grid for atomic number  74.
 Defaulting to unpruned grid for atomic number  74.
 Defaulting to unpruned grid for atomic number  74.
 Defaulting to unpruned grid for atomic number  74.
 Defaulting to unpruned grid for atomic number  74.
 Defaulting to unpruned grid for atomic number  74.
 Defaulting to unpruned grid for atomic number  74.
 Defaulting to unpruned grid for atomic number  74.
 Defaulting to unpruned grid for atomic number  74.
 Defaulting to unpruned grid for atomic number  74.
 Defaulting to unpruned grid for atomic number  74.
 Defaulting to unpruned grid for atomic number  74.
 Defaulting to unpruned grid for atomic number  74.
 Defaulting to unpruned grid for atomic number  74.
 Defaulting to unpruned grid for atomic number  74.
 Defaulting to unpruned grid for atomic number  74.
 Defaulting to unpruned grid for atomic number  74.
 Defaulting to unpruned grid for atomic number  74.
 Defaulting to unpruned grid for atomic number  74.
 Defaulting to unpruned grid for atomic number  74.
 Defaulting to unpruned grid for atomic number  74.
 Defaulting to unpruned grid for atomic number  74.
 Defaulting to unpruned grid for atomic number  74.
 Defaulting to unpruned grid for atomic number  74.
 Defaulting to unpruned grid for atomic number  74.
 Defaulting to unpruned grid for atomic number  74.
 Defaulting to unpruned grid for atomic number  74.
 Defaulting to unpruned grid for atomic number  74.
 Defaulting to unpruned grid for atomic number  74.
 Defaulting to unpruned grid for atomic number  74.
 Defaulting to unpruned grid for atomic number  74.
 Defaulting to unpruned grid for atomic number  74.
 Defaulting to unpruned grid for atomic number  74.
 Defaulting to unpruned grid for atomic number  74.
 Defaulting to unpruned grid for atomic number  74.
 Defaulting to unpruned grid for atomic number  74.
 Defaulting to unpruned grid for atomic number  74.
 Defaulting to unpruned grid for atomic number  74.
 Defaulting to unpruned grid for atomic number  74.
 Defaulting to unpruned grid for atomic number  74.
 Defaulting to unpruned grid for atomic number  74.
 Defaulting to unpruned grid for atomic number  74.
 Defaulting to unpruned grid for atomic number  74.
 Defaulting to unpruned grid for atomic number  74.
 Defaulting to unpruned grid for atomic number  74.
 Defaulting to unpruned grid for atomic number  74.
 Defaulting to unpruned grid for atomic number  74.
 Defaulting to unpruned grid for atomic number  74.
 Defaulting to unpruned grid for atomic number  74.
 Defaulting to unpruned grid for atomic number  74.
 Defaulting to unpruned grid for atomic number  74.
 Defaulting to unpruned grid for atomic number  74.
 -------------------------------------------------------------------
 Center     Atomic                   Forces (Hartrees/Bohr)
 Number     Number              X              Y              Z
 -------------------------------------------------------------------
      1       17          -0.002320386    0.007677918    0.002323650
      2        6          -0.001363925   -0.000564242   -0.001386014
      3        6          -0.000693677   -0.001622158    0.003398255
      4        6           0.001500829    0.001927674    0.000411339
      5        6           0.000868799   -0.000071055    0.001240181
      6        6          -0.000315311   -0.000186916    0.000829620
      7        6          -0.000848964   -0.001313746    0.000500205
      8        1           0.000235701    0.000042743   -0.000045259
      9        1           0.000091943    0.000152018   -0.000231648
     10        1           0.000234867   -0.000528420   -0.000248040
     11        1          -0.000407592    0.000101174    0.000192922
     12        1           0.000366594   -0.000405920    0.000260120
     13        6           0.007900450    0.009720883   -0.006987999
     14        6          -0.003002432   -0.016174056   -0.000566107
     15        1          -0.000952667    0.000380273    0.000431788
     16        1          -0.000619607    0.000293513    0.000262553
     17        1          -0.001683363    0.001387546   -0.000544725
     18        8          -0.003082156    0.000647528    0.000857923
     19        8           0.002978908   -0.000843743    0.000931755
     20        8           0.002482092   -0.002645935   -0.000688956
     21        8          -0.002280667    0.001935419   -0.000894129
     22       74           0.001491328    0.009638615   -0.009450371
     23       74          -0.002280869   -0.009189698   -0.009446555
     24       74           0.006168399    0.007724551    0.009665326
     25       74          -0.006493567   -0.006743738    0.009564947
     26       74           0.007889720   -0.007260862   -0.009984449
     27       74          -0.007946499    0.007734680   -0.009714693
     28       74          -0.011141934    0.002918665    0.010025255
     29       74           0.010527495   -0.001957888    0.009966817
     30        8          -0.000865523   -0.003243492    0.002598474
     31        8           0.000429787    0.003122642    0.002852636
     32        8          -0.002231618   -0.002255063   -0.002859504
     33        8           0.002166145    0.002167117   -0.003063978
     34        8          -0.000986912   -0.000835175    0.003079246
     35        8           0.001226173    0.000306654    0.003243669
     36        8           0.000403872   -0.001284983   -0.003051257
     37        8          -0.000140180    0.001085654   -0.003164637
     38        8          -0.004510389   -0.001380538   -0.001123356
     39        8           0.004276817    0.001397208   -0.001070157
     40        8           0.002416504   -0.005534389    0.000829715
     41        8          -0.001239688    0.004352068    0.000926916
     42        8          -0.002051687   -0.002586086    0.001173863
     43        8           0.002242681    0.002401391    0.000895361
     44        8          -0.000325150   -0.003521802   -0.000582842
     45        8           0.000843566    0.003062947   -0.001154340
     46        8          -0.002312364    0.002519233    0.003217877
     47        8           0.002456697   -0.001842373    0.003321503
     48        8           0.003666449   -0.000800668   -0.003604164
     49        8          -0.003323136    0.000362955   -0.003289452
     50       74           0.013537737    0.004775824    0.002848121
     51       74          -0.013753542   -0.003829275    0.003064784
     52       74          -0.005100882    0.014974686   -0.003061451
     53       74           0.004255075   -0.013546564   -0.002634010
     54        8          -0.000530977    0.001484361    0.002146273
     55        8           0.000654351   -0.001661496    0.002023895
     56        8           0.001872772   -0.000005865   -0.002339606
     57        8          -0.001524457   -0.000608025   -0.001950965
     58        8           0.000178739   -0.002401349    0.001070538
     59        8           0.000349628    0.002418045    0.001574780
     60        8          -0.001599698   -0.001753213   -0.001449668
     61        8           0.001793070    0.001466227   -0.001557605
     62        8          -0.001065907    0.001994939    0.000885837
     63        8           0.001067379   -0.002355545    0.000566945
     64        8           0.002225550   -0.000077372   -0.001075585
     65        8          -0.002484439   -0.000329612   -0.000857628
     66        8          -0.025268079   -0.004628424    0.016192661
     67        8           0.025611991    0.005365788    0.016106693
     68        8           0.010570852   -0.024292995   -0.016318679
     69        8          -0.010441097    0.023218700   -0.016445338
     70       19           0.000252954   -0.000767726   -0.000597889
     71       19           0.001225935    0.000447834    0.000983754
     72       19          -0.000810886   -0.000261613    0.000605687
     73       23          -0.000461623    0.000104549    0.000369175
 -------------------------------------------------------------------
 Cartesian Forces:  Max     0.025611991 RMS     0.005791188

 GradGradGradGradGradGradGradGradGradGradGradGradGradGradGradGradGradGrad
 Berny optimization.
 Search for a local minimum.
 Step number   1 out of a maximum of    2
 All quantities printed in internal units (Hartrees-Bohrs-Radians)
 Second derivative matrix not updated -- first step.
 ITU=  0
     Eigenvalues ---    0.00000   0.00000   0.00000   0.00010   0.00094
     Eigenvalues ---    0.00095   0.00254   0.00559   0.00619   0.01644
     Eigenvalues ---    0.01952   0.02898   0.02926   0.03186   0.03400
     Eigenvalues ---    0.03424   0.03708   0.03714   0.04156   0.04483
     Eigenvalues ---    0.04576   0.04583   0.04596   0.04816   0.04830
     Eigenvalues ---    0.04991   0.05325   0.05528   0.05544   0.06341
     Eigenvalues ---    0.06376   0.06533   0.06784   0.06862   0.07048
     Eigenvalues ---    0.07309   0.07337   0.07616   0.08306   0.08355
     Eigenvalues ---    0.08683   0.08693   0.08879   0.08900   0.09745
     Eigenvalues ---    0.09845   0.10037   0.10367   0.10404   0.10503
     Eigenvalues ---    0.10742   0.10874   0.11473   0.11517   0.11974
     Eigenvalues ---    0.12004   0.12070   0.12487   0.12539   0.12580
     Eigenvalues ---    0.12616   0.12735   0.12830   0.12979   0.13030
     Eigenvalues ---    0.13802   0.13907   0.14200   0.14366   0.14699
     Eigenvalues ---    0.16682   0.16711   0.16884   0.17161   0.17568
     Eigenvalues ---    0.17657   0.18517   0.19695   0.19832   0.20139
     Eigenvalues ---    0.20718   0.21051   0.21696   0.21745   0.22021
     Eigenvalues ---    0.22360   0.23035   0.23308   0.23769   0.23778
     Eigenvalues ---    0.24510   0.24595   0.24783   0.25583   0.25689
     Eigenvalues ---    0.26070   0.26189   0.27468   0.27559   0.27744
     Eigenvalues ---    0.28281   0.28392   0.28787   0.29494   0.29964
     Eigenvalues ---    0.30513   0.30597   0.30720   0.30751   0.30854
     Eigenvalues ---    0.30940   0.31154   0.31294   0.31556   0.32356
     Eigenvalues ---    0.32505   0.32540   0.32675   0.32893   0.33503
     Eigenvalues ---    0.33593   0.34957   0.35417   0.35678   0.36681
     Eigenvalues ---    0.37367   0.37467   0.37587   0.37971   0.38372
     Eigenvalues ---    0.38671   0.39168   0.40124   0.40188   0.41286
     Eigenvalues ---    0.42189   0.42256   0.43544   0.43703   0.44772
     Eigenvalues ---    0.45338   0.45595   0.45722   0.47108   0.48025
     Eigenvalues ---    0.48275   0.48720   0.48780   0.49480   0.49771
     Eigenvalues ---    0.49815   0.50556   0.51315   0.51441   0.51886
     Eigenvalues ---    0.52910   0.53425   0.54739   0.58945   0.64331
     Eigenvalues ---    0.67556   0.76579   0.81458   0.82724   0.96866
     Eigenvalues ---    0.97273   0.98737   0.99210   1.02247   1.04439
     Eigenvalues ---    1.07125   1.11576   1.12054   1.12291   1.16025
     Eigenvalues ---    1.19444   1.19869   1.20558   1.22736   1.23048
     Eigenvalues ---    1.23388   1.26202   1.26840   1.26931   1.27135
     Eigenvalues ---    1.27721   1.29005   1.29168   1.44896   1.45313
     Eigenvalues ---    1.45417   1.47710   1.51275   1.51520   1.51815
     Eigenvalues ---    1.52447   1.55355   1.55459   1.56206   1.58036
     Eigenvalues ---    1.58256   1.59421   1.61276   1.64304   1.66584
     Eigenvalues ---    1.76711   1.80327   1.82349   1.83091   1.83714
     Eigenvalues ---    1.92488   1.96676   2.71578
 Eigenvalue     1 is   0.00D+00 Eigenvector:
                          Y11       Y12       Y6        Y7        Y10
   1                    0.17442   0.17442   0.17442   0.17442   0.17442
                          Y5        Y2        Y8        Y4        Y3
   1                    0.17442   0.17442   0.17442   0.17442   0.17442
 Eigenvalue     2 is   2.62D-07 Eigenvector:
                          Y16       X16       X11       Y11       Y14
   1                    0.31601  -0.27102   0.26668  -0.23949   0.23083
                          Y15       Z11       X14       Y17       X6
   1                    0.23063  -0.19903  -0.19059   0.19021   0.18505
 Eigenvalue     3 is   2.31D-06 Eigenvector:
                          X9        X10       Y12       Y9        X12
   1                    0.33097   0.29520   0.26906  -0.24886  -0.24712
                          Y8        Y10       X8        X15       X4
   1                    0.24116  -0.22169  -0.21459   0.21448   0.20442
 Quadratic step=2.619D+01 exceeds max=3.000D-01 adjusted using Lamda=-1.089D-02.
 Angle between NR and scaled steps=  36.33 degrees.
 Angle between quadratic step and forces=  66.96 degrees.
 Linear search not attempted -- first point.
 B after Tr=    -0.000120    0.007284    0.001748
         Rot=    1.000000   -0.000167    0.000013    0.000104 Ang=  -0.02 deg.
 Variable       Old X    -DE/DX   Delta X   Delta X   Delta X     New X
                                 (Linear)    (Quad)   (Total)
    X1      -18.35917  -0.00232   0.00000  -0.00221   0.00040 -18.35877
    Y1       15.65346   0.00768   0.00000   0.00774   0.01220  15.66566
    Z1       19.92023   0.00232   0.00000   0.00243   0.00891  19.92914
    X2      -15.87921  -0.00136   0.00000   0.00289   0.00385 -15.87536
    Y2        8.13224  -0.00056   0.00000  -0.01923  -0.01632   8.11591
    Z2       23.04862  -0.00139   0.00000  -0.00087   0.00317  23.05179
    X3      -17.41953  -0.00069   0.00000   0.01375   0.01464 -17.40489
    Y3        7.52611  -0.00162   0.00000  -0.02836  -0.02445   7.50166
    Z3       20.96603   0.00340   0.00000  -0.00411  -0.00032  20.96571
    X4      -19.11946   0.00150   0.00000   0.00572   0.00617 -19.11329
    Y4        5.49582   0.00193   0.00000  -0.01246  -0.00827   5.48755
    Z4       21.21847   0.00041   0.00000   0.01339   0.01646  21.23493
    X5      -19.29365   0.00087   0.00000  -0.00068  -0.00056 -19.29421
    Y5        4.14484  -0.00007   0.00000  -0.00636  -0.00289   4.14195
    Z5       23.46900   0.00124   0.00000   0.01841   0.02103  23.49003
    X6      -17.75243  -0.00032   0.00000  -0.01112  -0.01093 -17.76336
    Y6        4.77329  -0.00019   0.00000  -0.00066   0.00181   4.77510
    Z6       25.51486   0.00083   0.00000   0.02226   0.02512  25.53998
    X7      -16.04215  -0.00085   0.00000  -0.00579  -0.00517 -16.04733
    Y7        6.77092  -0.00131   0.00000  -0.00815  -0.00596   6.76496
    Z7       25.29062   0.00050   0.00000   0.00972   0.01329  25.30391
    X8      -14.53942   0.00024   0.00000   0.01038   0.01167 -14.52775
    Y8        9.69606   0.00004   0.00000  -0.02477  -0.02210   9.67396
    Z8       22.91949  -0.00005   0.00000  -0.00604  -0.00145  22.91803
    X9      -20.33447   0.00009   0.00000   0.00965   0.01004 -20.32443
    Y9        4.99210   0.00015   0.00000  -0.01530  -0.01033   4.98177
    Z9       19.62392  -0.00023   0.00000   0.01065   0.01352  19.63744
   X10      -20.64472   0.00023   0.00000   0.00349   0.00328 -20.64144
   Y10        2.59166  -0.00053   0.00000  -0.01108  -0.00738   2.58428
   Z10       23.63316  -0.00025   0.00000   0.01251   0.01457  23.64773
   X11      -17.86438  -0.00041   0.00000  -0.02006  -0.02014 -17.88452
   Y11        3.69795   0.00010   0.00000   0.00843   0.01033   3.70828
   Z11       27.27255   0.00019   0.00000   0.02697   0.02948  27.30203
   X12      -14.83337   0.00037   0.00000  -0.00069  -0.00001 -14.83338
   Y12        7.28474  -0.00041   0.00000  -0.00863  -0.00722   7.27751
   Z12       26.88411   0.00026   0.00000   0.00716   0.01094  26.89505
   X13      -17.34520   0.00790   0.00000   0.04054   0.04178 -17.30342
   Y13        8.96226   0.00972   0.00000  -0.07422  -0.06952   8.89274
   Z13       18.60092  -0.00699   0.00000  -0.04329  -0.03904  18.56188
   X14      -15.95743  -0.00300   0.00000   0.04827   0.04995 -15.90748
   Y14       11.05958  -0.01617   0.00000  -0.11441  -0.10985  10.94972
   Z14       18.17877  -0.00057   0.00000  -0.07634  -0.07136  18.10741
   X15      -18.57633  -0.00095   0.00000   0.00709   0.00822 -18.56811
   Y15        8.26108   0.00038   0.00000  -0.06544  -0.05998   8.20111
   Z15       17.09031   0.00043   0.00000  -0.01906  -0.01507  17.07524
   X16      -16.00007  -0.00062   0.00000   0.02416   0.02609 -15.97398
   Y16       12.01378   0.00029   0.00000  -0.11038  -0.10520  11.90858
   Z16       16.35324   0.00026   0.00000  -0.07291  -0.06762  16.28562
   X17      -14.62728  -0.00168   0.00000   0.01082   0.01263 -14.61465
   Y17       11.80168   0.00139   0.00000  -0.05786  -0.05403  11.74765
   Z17       19.56698  -0.00054   0.00000  -0.07171  -0.06643  19.50055
   X18       -1.83865  -0.00308   0.00000  -0.01743  -0.01864  -1.85729
   Y18       -3.45750   0.00065   0.00000   0.00440   0.00737  -3.45012
   Z18       14.07800   0.00086   0.00000   0.01006   0.01060  14.08860
   X19      -15.81922   0.00298   0.00000   0.01088   0.00987 -15.80935
   Y19       -2.49142  -0.00084   0.00000   0.00906   0.01493  -2.47649
   Z19       14.09450   0.00093   0.00000   0.01248   0.01298  14.10748
   X20      -13.23608   0.00248   0.00000   0.01114   0.01101 -13.22507
   Y20        2.50720  -0.00265   0.00000  -0.00709  -0.00366   2.50354
   Z20       19.83215  -0.00069   0.00000  -0.00519  -0.00296  19.82919
   X21       -4.38970  -0.00228   0.00000  -0.01102  -0.01341  -4.40310
   Y21       -8.31552   0.00194   0.00000   0.01309   0.01464  -8.30088
   Z21       19.94818  -0.00089   0.00000  -0.01085  -0.01199  19.93619
   X22       -6.36579   0.00149   0.00000  -0.00915  -0.00931  -6.37510
   Y22        1.35618   0.00964   0.00000   0.01511   0.01962   1.37580
   Z22       12.31101  -0.00945   0.00000  -0.00856  -0.00653  12.30448
   X23      -11.33677  -0.00228   0.00000   0.00374   0.00177 -11.33499
   Y23       -7.27710  -0.00919   0.00000   0.00092   0.00642  -7.27068
   Z23       12.43702  -0.00945   0.00000  -0.00572  -0.00670  12.43032
   X24       -6.75266   0.00617   0.00000   0.01359   0.01324  -6.73942
   Y24        1.66654   0.00772   0.00000  -0.00008   0.00142   1.66796
   Z24       21.52501   0.00967   0.00000   0.01202   0.01415  21.53916
   X25      -10.90511  -0.00649   0.00000  -0.01461  -0.01685 -10.92196
   Y25       -7.37295  -0.00674   0.00000   0.00579   0.00812  -7.36482
   Z25       21.65659   0.00956   0.00000   0.00527   0.00426  21.66085
   X26       -4.63396   0.00789   0.00000  -0.00332  -0.00478  -4.63874
   Y26       -4.88901  -0.00726   0.00000  -0.00623  -0.00199  -4.89100
   Z26       12.03188  -0.00998   0.00000  -0.00460  -0.00461  12.02727
   X27      -13.02711  -0.00795   0.00000  -0.00539  -0.00604 -13.03316
   Y27       -1.03565   0.00773   0.00000   0.02373   0.02973  -1.00592
   Z27       11.98707  -0.00971   0.00000  -0.00280  -0.00174  11.98533
   X28      -12.79618  -0.01114   0.00000  -0.00943  -0.01025 -12.80642
   Y28       -0.51551   0.00292   0.00000  -0.00211   0.00053  -0.51498
   Z28       21.92002   0.01003   0.00000   0.00727   0.00850  21.92852
   X29       -4.83558   0.01053   0.00000   0.00881   0.00703  -4.82855
   Y29       -5.18806  -0.00196   0.00000   0.00752   0.00848  -5.17959
   Z29       21.97504   0.00997   0.00000   0.00547   0.00536  21.98039
   X30       -5.89738  -0.00087   0.00000   0.00357   0.00394  -5.89344
   Y30        3.62283  -0.00324   0.00000  -0.00013   0.00501   3.62784
   Z30       10.11666   0.00260   0.00000  -0.01021  -0.00741  10.10925
   X31      -11.61383   0.00043   0.00000  -0.00873  -0.01114 -11.62497
   Y31       -9.63983   0.00312   0.00000   0.00947   0.01575  -9.62408
   Z31       10.28166   0.00285   0.00000  -0.00249  -0.00427  10.27739
   X32       -5.00180  -0.00223   0.00000   0.00110   0.00102  -5.00077
   Y32        3.26260  -0.00226   0.00000   0.00257   0.00299   3.26558
   Z32       23.69277  -0.00286   0.00000   0.00904   0.01174  23.70451
   X33      -12.62428   0.00217   0.00000  -0.00298  -0.00560 -12.62988
   Y33       -8.91959   0.00217   0.00000   0.00140   0.00335  -8.91624
   Z33       23.87995  -0.00306   0.00000   0.00025  -0.00132  23.87863
   X34       -5.02046  -0.00099   0.00000  -0.01156  -0.01232  -5.03278
   Y34       -1.71137  -0.00084   0.00000  -0.00068   0.00412  -1.70725
   Z34       10.55827   0.00308   0.00000   0.01160   0.01264  10.57091
   X35      -12.63504   0.00123   0.00000   0.00617   0.00487 -12.63017
   Y35       -4.31397   0.00031   0.00000   0.01597   0.02234  -4.29163
   Z35       10.62530   0.00324   0.00000   0.01365   0.01362  10.63892
   X36       -9.94952   0.00040   0.00000   0.00320   0.00267  -9.94685
   Y36        1.01408  -0.00128   0.00000  -0.01009  -0.00853   1.00555
   Z36       23.36547  -0.00305   0.00000  -0.00617  -0.00436  23.36111
   X37       -7.66421  -0.00014   0.00000  -0.00326  -0.00541  -7.66962
   Y37       -6.71384   0.00109   0.00000   0.01178   0.01284  -6.70099
   Z37       23.44665  -0.00316   0.00000  -0.01137  -0.01206  23.43459
   X38        0.66620  -0.00451   0.00000   0.00071   0.00008   0.66628
   Y38       -0.17685  -0.00138   0.00000   0.00169   0.00299  -0.17386
   Z38       17.50925  -0.00112   0.00000  -0.00115   0.00056  17.50981
   X39      -18.32941   0.00428   0.00000  -0.00558  -0.00735 -18.33676
   Y39       -5.65598   0.00140   0.00000   0.01038   0.01562  -5.64036
   Z39       17.60915  -0.00107   0.00000  -0.00031  -0.00093  17.60822
   X40      -12.06307   0.00242   0.00000   0.01480   0.01559 -12.04748
   Y40        6.43782  -0.00553   0.00000   0.01137   0.01568   6.45350
   Z40       16.41102   0.00083   0.00000   0.00914   0.01272  16.42373
   X41       -5.60598  -0.00124   0.00000  -0.00276  -0.00588  -5.61186
   Y41      -12.27162   0.00435   0.00000   0.00381   0.00675 -12.26487
   Z41       16.52714   0.00093   0.00000  -0.00130  -0.00380  16.52334
   X42       -3.30843  -0.00205   0.00000  -0.01600  -0.01622  -3.32465
   Y42        1.37634  -0.00259   0.00000  -0.00149   0.00176   1.37810
   Z42       14.15231   0.00117   0.00000   0.00919   0.01131  14.16362
   X43      -14.36481   0.00224   0.00000   0.00998   0.00796 -14.35686
   Y43       -7.33166   0.00240   0.00000   0.01525   0.02076  -7.31090
   Z43       14.27428   0.00090   0.00000   0.00793   0.00685  14.28113
   X44       -8.46043  -0.00033   0.00000   0.00707   0.00729  -8.45314
   Y44        4.14245  -0.00352   0.00000  -0.01327  -0.01080   4.13166
   Z44       19.69699  -0.00058   0.00000   0.00073   0.00363  19.70062
   X45       -9.18547   0.00084   0.00000  -0.00753  -0.01024  -9.19571
   Y45       -9.91338   0.00306   0.00000   0.01845   0.02102  -9.89236
   Z45       19.86672  -0.00115   0.00000  -0.00994  -0.01174  19.85498
   X46       -3.07881  -0.00231   0.00000  -0.00052  -0.00229  -3.08111
   Y46       -6.65248   0.00252   0.00000   0.00642   0.01106  -6.64142
   Z46        9.84304   0.00322   0.00000  -0.00065  -0.00120   9.84183
   X47      -14.67522   0.00246   0.00000  -0.01174  -0.01202 -14.68724
   Y47        0.48407  -0.00184   0.00000   0.01249   0.01959   0.50366
   Z47        9.71787   0.00332   0.00000   0.00602   0.00754   9.72541
   X48      -15.08593   0.00367   0.00000  -0.00128  -0.00211 -15.08804
   Y48       -0.32312  -0.00080   0.00000   0.00574   0.00811  -0.31501
   Z48       24.15953  -0.00360   0.00000   0.00223   0.00347  24.16300
   X49       -2.51208  -0.00332   0.00000   0.00137  -0.00053  -2.51261
   Y49       -5.43260   0.00036   0.00000  -0.00505  -0.00531  -5.43791
   Z49       24.17814  -0.00329   0.00000   0.00016   0.00003  24.17817
   X50       -2.29508   0.01354   0.00000   0.00393   0.00313  -2.29195
   Y50       -1.12135   0.00478   0.00000   0.00822   0.01040  -1.11095
   Z50       16.69954   0.00285   0.00000   0.01231   0.01362  16.71316
   X51      -15.36961  -0.01375   0.00000  -0.00895  -0.01050 -15.38012
   Y51       -4.73138  -0.00383   0.00000   0.00472   0.00961  -4.72177
   Z51       16.77178   0.00306   0.00000   0.01274   0.01250  16.78427
   X52      -11.13436  -0.00510   0.00000   0.00330   0.00345 -11.13091
   Y52        3.47235   0.01497   0.00000   0.01590   0.01980   3.49214
   Z52       17.10924  -0.00306   0.00000  -0.00625  -0.00363  17.10560
   X53       -6.53410   0.00426   0.00000  -0.00413  -0.00665  -6.54075
   Y53       -9.29754  -0.01355   0.00000  -0.00255   0.00032  -9.29721
   Z53       17.30590  -0.00263   0.00000  -0.01225  -0.01378  17.29211
   X54       -7.97651  -0.00053   0.00000  -0.00077  -0.00243  -7.97893
   Y54       -5.90516   0.00148   0.00000  -0.00193   0.00319  -5.90196
   Z54       11.45949   0.00215   0.00000  -0.00595  -0.00639  11.45310
   X55       -9.67915   0.00065   0.00000  -0.00673  -0.00717  -9.68632
   Y55       -0.09974  -0.00166   0.00000   0.01779   0.02330  -0.07644
   Z55       11.37239   0.00202   0.00000  -0.00541  -0.00395  11.36844
   X56      -11.64005   0.00187   0.00000  -0.00974  -0.01126 -11.65130
   Y56       -3.83004  -0.00001   0.00000   0.00048   0.00267  -3.82737
   Z56       22.53357  -0.00234   0.00000   0.00600   0.00616  22.53973
   X57       -5.95435  -0.00152   0.00000   0.01008   0.00897  -5.94538
   Y57       -1.88004  -0.00061   0.00000   0.00362   0.00463  -1.87541
   Z57       22.52922  -0.00195   0.00000   0.01022   0.01118  22.54041
   X58       -8.19902   0.00018   0.00000  -0.00238  -0.00227  -8.20129
   Y58        2.98811  -0.00240   0.00000   0.01444   0.01848   3.00660
   Z58       14.83959   0.00107   0.00000  -0.00730  -0.00477  14.83481
   X59       -9.44783   0.00035   0.00000  -0.00002  -0.00239  -9.45023
   Y59       -8.89112   0.00242   0.00000  -0.00042   0.00384  -8.88727
   Z59       14.96784   0.00157   0.00000  -0.00712  -0.00859  14.95924
   X60       -4.31751  -0.00160   0.00000   0.00994   0.00953  -4.30798
   Y60        1.03631  -0.00175   0.00000   0.00381   0.00564   1.04194
   Z60       19.03615  -0.00145   0.00000   0.01129   0.01327  19.04942
   X61      -13.33029   0.00179   0.00000  -0.01221  -0.01427 -13.34456
   Y61       -6.84672   0.00147   0.00000   0.00540   0.00908  -6.83764
   Z61       19.14501  -0.00156   0.00000   0.00652   0.00562  19.15063
   X62       -4.85060  -0.00107   0.00000  -0.00279  -0.00485  -4.85546
   Y62       -7.40082   0.00199   0.00000  -0.00266   0.00069  -7.40012
   Z62       14.83561   0.00089   0.00000  -0.00778  -0.00863  14.82697
   X63      -12.83846   0.00107   0.00000  -0.00078  -0.00098 -12.83945
   Y63        1.47854  -0.00236   0.00000   0.01803   0.02307   1.50161
   Z63       14.74196   0.00057   0.00000  -0.00421  -0.00231  14.73966
   X64      -14.75162   0.00223   0.00000  -0.00846  -0.00956 -14.76118
   Y64       -2.22643  -0.00008   0.00000   0.00309   0.00704  -2.21940
   Z64       19.19977  -0.00108   0.00000   0.00926   0.00987  19.20965
   X65       -2.90637  -0.00248   0.00000   0.00520   0.00382  -2.90255
   Y65       -3.58448  -0.00033   0.00000   0.00603   0.00752  -3.57696
   Z65       19.17987  -0.00086   0.00000   0.00795   0.00843  19.18830
   X66       -6.31670  -0.02527   0.00000  -0.04782  -0.04881  -6.36551
   Y66       -2.20969  -0.00463   0.00000  -0.00114   0.00241  -2.20729
   Z66       15.14283   0.01619   0.00000   0.02760   0.02844  15.17127
   X67      -11.34277   0.02561   0.00000   0.04149   0.04019 -11.30257
   Y67       -3.72067   0.00537   0.00000   0.01699   0.02156  -3.69911
   Z67       15.18714   0.01611   0.00000   0.02869   0.02890  15.21604
   X68       -9.62502   0.01057   0.00000   0.02001   0.01929  -9.60573
   Y68       -0.41775  -0.02429   0.00000  -0.03629  -0.03327  -0.45101
   Z68       18.79792  -0.01632   0.00000  -0.02483  -0.02349  18.77443
   X69       -7.99409  -0.01044   0.00000  -0.02197  -0.02371  -8.01780
   Y69       -5.40029   0.02322   0.00000   0.04384   0.04651  -5.35377
   Z69       18.85039  -0.01645   0.00000  -0.02682  -0.02707  18.82331
   X70       -6.09701   0.00025   0.00000  -0.00188  -0.00471  -6.10172
   Y70      -11.62682  -0.00077   0.00000  -0.00199   0.00301 -11.62381
   Z70       10.67379  -0.00060   0.00000  -0.00846  -0.01076  10.66304
   X71       -0.22820   0.00123   0.00000   0.01118   0.01043  -0.21778
   Y71       -0.06892   0.00045   0.00000   0.00338   0.00293  -0.06599
   Z71       23.28829   0.00098   0.00000   0.01070   0.01242  23.30071
   X72      -17.57431  -0.00081   0.00000  -0.01144  -0.01329 -17.58761
   Y72       -5.33259  -0.00026   0.00000   0.00371   0.00684  -5.32575
   Z72       23.41927   0.00061   0.00000   0.00770   0.00720  23.42647
   X73       -8.82349  -0.00046   0.00000  -0.00263  -0.00382  -8.82731
   Y73       -2.92909   0.00010   0.00000   0.00571   0.00917  -2.91993
   Z73       16.98939   0.00037   0.00000   0.00173   0.00227  16.99166
         Item               Value     Threshold  Converged?
 Maximum Force            0.025612     0.000450     NO 
 RMS     Force            0.005791     0.000300     NO 
 Maximum Displacement     0.109853     0.001800     NO 
 RMS     Displacement     0.020103     0.001200     NO 
 Predicted change in Energy=-5.447680D-03
 GradGradGradGradGradGradGradGradGradGradGradGradGradGradGradGradGradGrad

 Unable to Open any file for archive entry.
 1\1\GINC-X11P1N2\Force\RwB97XD\def2SVP\C8H8Cl1K3O40V1W12(1-)\MAYUMIAO\
 03-Jun-2024\0\\# def2svp wb97xd scrf=(smd,solvent=acetonitrile) g09def
 ault scf=(xqc,maxcycle=64) force guess=read nosymm\\Title Card\\-1,1\C
 l,-9.71525407,8.28345343,10.54133179\C,-8.40291352,4.30339491,12.19680
 584\C,-9.21801723,3.98264619,11.09474667\C,-10.11758226,2.90826433,11.
 22833192\C,-10.20975962,2.19335475,12.41925981\C,-9.39417878,2.5259166
 5,13.50188182\C,-8.48914026,3.58301627,13.38321937\H,-7.69392822,5.130
 9325,12.12846974\H,-10.76053984,2.64170565,10.38453344\H,-10.92471334,
 1.37144662,12.50612776\H,-9.45342329,1.95686849,14.43201166\H,-7.84948
 11,3.85491606,14.22645746\C,-9.17868709,4.7426251,9.84318061\C,-8.4443
 0703,5.85247648,9.61979104\H,-9.83016997,4.37157675,9.04380351\H,-8.46
 68738,6.3574196,8.65375997\H,-7.740424,6.24517762,10.35440213\O,-0.972
 96949,-1.82962826,7.44975432\O,-8.37116959,-1.31840178,7.45848804\O,-7
 .00423215,1.32675092,10.49472096\O,-2.32292806,-4.40038356,10.55612191
 \W,-3.3686333,0.71765814,6.51470594\W,-5.99915856,-3.85087479,6.581389
 87\W,-3.57335183,0.88189357,11.3905451\W,-5.77073673,-3.90159631,11.46
 017341\W,-2.45218621,-2.58715013,6.36699615\W,-6.8936512,-0.54804292,6
 .34328408\W,-6.77144498,-0.27279441,11.59957406\W,-2.55887703,-2.74540
 477,11.62868948\O,-3.12075926,1.91711848,5.3535074\O,-6.14577577,-5.10
 117825,5.44081914\O,-2.64683762,1.72649246,12.53767368\O,-6.68048356,-
 4.72004592,12.63672532\O,-2.65671289,-0.90561929,5.58719469\O,-6.68617
 295,-2.28285532,5.62266403\O,-5.26505817,0.53662782,12.36447534\O,-4.0
 5572784,-3.55280884,12.40743507\O,0.35253648,-0.09358574,9.26549521\O,
 -9.69950848,-2.99301349,9.31836116\O,-6.38350154,3.40674685,8.68433711
 \O,-2.96655625,-6.49386247,8.74578532\O,-1.75074803,0.72832755,7.48908
 134\O,-7.60153068,-3.87974632,7.55362144\O,-4.4770653,2.19209239,10.42
 319756\O,-4.8607413,-5.24593635,10.51301623\O,-1.62923828,-3.52034115,
 5.20871038\O,-7.76579325,0.25615697,5.14247471\O,-7.98312922,-0.170987
 79,12.7846712\O,-1.32933608,-2.87480935,12.79452252\W,-1.21450274,-0.5
 9339342,8.83701347\W,-8.1332489,-2.50374103,8.87524185\W,-5.89204916,1
 .83748664,9.05381865\W,-3.4576958,-4.92004365,9.15788568\O,-4.22098497
 ,-3.12487396,6.06410288\O,-5.12198691,-0.0527802,6.01801191\O,-6.15964
 726,-2.0267706,11.92425316\O,-3.15090599,-0.9948719,11.92195168\O,-4.3
 3873598,1.5812409,7.85277173\O,-4.99957807,-4.70497593,7.92063789\O,-2
 .28472684,0.54838975,10.07349906\O,-7.05408504,-3.62312796,10.13110116
 \O,-2.56682931,-3.91634439,7.85066445\O,-6.79382275,0.78240853,7.80111
 061\O,-7.80622133,-1.17817801,10.16008298\O,-1.53798437,-1.89682515,10
 .14954966\O,-3.34265628,-1.16931899,8.01323861\O,-6.00233384,-1.968892
 69,8.03669062\O,-5.09334381,-0.22106375,9.94742896\O,-4.23028831,-2.85
 770801,9.97519459\K,-3.22639937,-6.15264837,5.64832888\K,-0.12076071,-
 0.03647239,12.32363275\K,-9.29992612,-2.82188471,12.39294311\V,-4.6691
 9188,-1.55000911,8.99039695\\Version=ES64L-G16RevC.01\HF=-7327.7023289
 \RMSD=3.232e-09\RMSF=5.791e-03\Dipole=10.0428245,-22.0750796,2.3408504
 \Quadrupole=-69.2294918,46.6606806,22.5688112,335.1010992,336.0306071,
 -357.7425609\PG=C01 [X(C8H8Cl1K3O40V1W12)]\\@
 The archive entry for this job was punched.


 THERE IS MORE TO LIFE THAN INCREASING ITS SPEED.

                                       -- GANDHI
 Job cpu time:       0 days  8 hours 59 minutes 42.6 seconds.
 Elapsed time:       0 days  0 hours 10 minutes 13.4 seconds.
 File lengths (MBytes):  RWF=   1258 Int=      0 D2E=      0 Chk=    249 Scr=      1
 Normal termination of Gaussian 16 at Mon Jun  3 08:49:24 2024.
