 Entering Gaussian System, Link 0=g16
 Input=JOBS/75_B.gjf
 Output=JOBS/75_B.log
 Initial command:
 /data/app/gaussian/C01-avx2//g16/l1.exe "/tmp/Gau-724183.inp" -scrdir="/tmp/"
 Entering Link 1 = /data/app/gaussian/C01-avx2//g16/l1.exe PID=    724184.
  
 Copyright (c) 1988-2019, Gaussian, Inc.  All Rights Reserved.
  
 This is part of the Gaussian(R) 16 program.  It is based on
 the Gaussian(R) 09 system (copyright 2009, Gaussian, Inc.),
 the Gaussian(R) 03 system (copyright 2003, Gaussian, Inc.),
 the Gaussian(R) 98 system (copyright 1998, Gaussian, Inc.),
 the Gaussian(R) 94 system (copyright 1995, Gaussian, Inc.),
 the Gaussian 92(TM) system (copyright 1992, Gaussian, Inc.),
 the Gaussian 90(TM) system (copyright 1990, Gaussian, Inc.),
 the Gaussian 88(TM) system (copyright 1988, Gaussian, Inc.),
 the Gaussian 86(TM) system (copyright 1986, Carnegie Mellon
 University), and the Gaussian 82(TM) system (copyright 1983,
 Carnegie Mellon University). Gaussian is a federally registered
 trademark of Gaussian, Inc.
  
 This software contains proprietary and confidential information,
 including trade secrets, belonging to Gaussian, Inc.
  
 This software is provided under written license and may be
 used, copied, transmitted, or stored only in accord with that
 written license.
  
 The following legend is applicable only to US Government
 contracts under FAR:
  
                    RESTRICTED RIGHTS LEGEND
  
 Use, reproduction and disclosure by the US Government is
 subject to restrictions as set forth in subparagraphs (a)
 and (c) of the Commercial Computer Software - Restricted
 Rights clause in FAR 52.227-19.
  
 Gaussian, Inc.
 340 Quinnipiac St., Bldg. 40, Wallingford CT 06492
  
  
 ---------------------------------------------------------------
 Warning -- This program may not be used in any manner that
 competes with the business of Gaussian, Inc. or will provide
 assistance to any competitor of Gaussian, Inc.  The licensee
 of this program is prohibited from giving any competitor of
 Gaussian, Inc. access to this program.  By using this program,
 the user acknowledges that Gaussian, Inc. is engaged in the
 business of creating and licensing software in the field of
 computational chemistry and represents and warrants to the
 licensee that it is not a competitor of Gaussian, Inc. and that
 it will not use this program in any manner prohibited above.
 ---------------------------------------------------------------
  

 Cite this work as:
 Gaussian 16, Revision C.01,
 M. J. Frisch, G. W. Trucks, H. B. Schlegel, G. E. Scuseria, 
 M. A. Robb, J. R. Cheeseman, G. Scalmani, V. Barone, 
 G. A. Petersson, H. Nakatsuji, X. Li, M. Caricato, A. V. Marenich, 
 J. Bloino, B. G. Janesko, R. Gomperts, B. Mennucci, H. P. Hratchian, 
 J. V. Ortiz, A. F. Izmaylov, J. L. Sonnenberg, D. Williams-Young, 
 F. Ding, F. Lipparini, F. Egidi, J. Goings, B. Peng, A. Petrone, 
 T. Henderson, D. Ranasinghe, V. G. Zakrzewski, J. Gao, N. Rega, 
 G. Zheng, W. Liang, M. Hada, M. Ehara, K. Toyota, R. Fukuda, 
 J. Hasegawa, M. Ishida, T. Nakajima, Y. Honda, O. Kitao, H. Nakai, 
 T. Vreven, K. Throssell, J. A. Montgomery, Jr., J. E. Peralta, 
 F. Ogliaro, M. J. Bearpark, J. J. Heyd, E. N. Brothers, K. N. Kudin, 
 V. N. Staroverov, T. A. Keith, R. Kobayashi, J. Normand, 
 K. Raghavachari, A. P. Rendell, J. C. Burant, S. S. Iyengar, 
 J. Tomasi, M. Cossi, J. M. Millam, M. Klene, C. Adamo, R. Cammi, 
 J. W. Ochterski, R. L. Martin, K. Morokuma, O. Farkas, 
 J. B. Foresman, and D. J. Fox, Gaussian, Inc., Wallingford CT, 2019.
 
 ******************************************
 Gaussian 16:  ES64L-G16RevC.01  3-Jul-2019
                 3-Jun-2024 
 ******************************************
 %chk=b.chk
 %nprocshared=56
 Will use up to   56 processors via shared memory.
 %mem=96gb
 ----------------------------------------------------------------------
 # def2svp wb97xd scrf=(smd,solvent=acetonitrile) g09default scf=(xqc,m
 axcycle=64) force guess=read nosymm
 ----------------------------------------------------------------------
 1/10=7,30=1,38=1,158=3,167=1/1,3;
 2/12=2,15=1,17=6,18=5,40=1/2;
 3/5=43,7=101,11=2,25=1,27=10,30=1,70=32201,71=1,72=2,74=-58,75=-4,116=-2,158=3/1,2,3;
 4/5=1,60=-1/1;
 5/5=2,7=64,8=3,13=1,38=6,53=2,87=10/2,8;
 6/7=2,8=2,9=2,10=2,28=1,87=10/1;
 7/29=1,30=1,87=10/1,2,3,16;
 1/10=7,30=1,158=3,167=1/3;
 99//99;
 Using 2006 physical constants.
 ----------
 Title Card
 ----------
 Symbolic Z-matrix:
 Charge = -1 Multiplicity = 1
 17                   -9.71525   8.28345   10.54133 
 6                    -8.40291   4.30339   12.19681 
 6                    -9.21802   3.98265   11.09475 
 6                    -10.11758   2.90826   11.22833 
 6                    -10.20976   2.19335   12.41926 
 6                    -9.39418   2.52592   13.50188 
 6                    -8.48914   3.58302   13.38322 
 1                    -7.69393   5.13093   12.12847 
 1                    -10.76054   2.64171   10.38453 
 1                    -10.92471   1.37145   12.50613 
 1                    -9.45342   1.95687   14.43201 
 1                    -7.84948   3.85492   14.22646 
 6                    -9.17869   4.74263   9.84318 
 6                    -8.44431   5.85248   9.61979 
 1                    -9.83017   4.37158   9.0438 
 1                    -8.46687   6.35742   8.65376 
 1                    -7.74042   6.24518   10.3544 
 8                    -0.97297  -1.82963   7.44975 
 8                    -8.37117  -1.3184    7.45849 
 8                    -7.00423   1.32675   10.49472 
 8                    -2.32293  -4.40038   10.55612 
 74                   -3.36863   0.71766   6.51471 
 74                   -5.99916  -3.85087   6.58139 
 74                   -3.57335   0.88189   11.39055 
 74                   -5.77074  -3.9016    11.46017 
 74                   -2.45219  -2.58715   6.367 
 74                   -6.89365  -0.54804   6.34328 
 74                   -6.77144  -0.27279   11.59957 
 74                   -2.55888  -2.7454    11.62869 
 8                    -3.12076   1.91712   5.35351 
 8                    -6.14578  -5.10118   5.44082 
 8                    -2.64684   1.72649   12.53767 
 8                    -6.68048  -4.72005   12.63673 
 8                    -2.65671  -0.90562   5.58719 
 8                    -6.68617  -2.28286   5.62266 
 8                    -5.26506   0.53663   12.36448 
 8                    -4.05573  -3.55281   12.40744 
 8                     0.35254  -0.09359   9.2655 
 8                    -9.69951  -2.99301   9.31836 
 8                    -6.3835    3.40675   8.68434 
 8                    -2.96656  -6.49386   8.74579 
 8                    -1.75075   0.72833   7.48908 
 8                    -7.60153  -3.87975   7.55362 
 8                    -4.47707   2.19209   10.4232 
 8                    -4.86074  -5.24594   10.51302 
 8                    -1.62924  -3.52034   5.20871 
 8                    -7.76579   0.25616   5.14247 
 8                    -7.98313  -0.17099   12.78467 
 8                    -1.32934  -2.87481   12.79452 
 74                   -1.2145   -0.59339   8.83701 
 74                   -8.13325  -2.50374   8.87524 
 74                   -5.89205   1.83749   9.05382 
 74                   -3.4577   -4.92004   9.15789 
 8                    -4.22098  -3.12487   6.0641 
 8                    -5.12199  -0.05278   6.01801 
 8                    -6.15965  -2.02677   11.92425 
 8                    -3.15091  -0.99487   11.92195 
 8                    -4.33874   1.58124   7.85277 
 8                    -4.99958  -4.70498   7.92064 
 8                    -2.28473   0.54839   10.0735 
 8                    -7.05409  -3.62313   10.1311 
 8                    -2.56683  -3.91634   7.85066 
 8                    -6.79382   0.78241   7.80111 
 8                    -7.80622  -1.17818   10.16008 
 8                    -1.53798  -1.89683   10.14955 
 8                    -3.34266  -1.16932   8.01324 
 8                    -6.00233  -1.96889   8.03669 
 8                    -5.09334  -0.22106   9.94743 
 8                    -4.23029  -2.85771   9.97519 
 19                   -3.2264   -6.15265   5.64833 
 19                   -0.12076  -0.03647   12.32363 
 19                   -9.29993  -2.82188   12.39294 
 23                   -4.66919  -1.55001   8.9904 
 

 GradGradGradGradGradGradGradGradGradGradGradGradGradGradGradGradGradGrad
 Berny optimization.
 Initialization pass.
 Trust Radius=3.00D-01 FncErr=1.00D-07 GrdErr=1.00D-07 EigMax=2.50D+02 EigMin=1.00D-04
 Number of steps in this run=      2 maximum allowed number of steps=      2.
 GradGradGradGradGradGradGradGradGradGradGradGradGradGradGradGradGradGrad

 Symmetry turned off by external request.
 Stoichiometry    C8H8ClK3O40VW12(1-)
 Framework group  C1[X(C8H8ClK3O40VW12)]
 Deg. of freedom   213
 Full point group                 C1      NOp   1
                          Input orientation:                          
 ---------------------------------------------------------------------
 Center     Atomic      Atomic             Coordinates (Angstroms)
 Number     Number       Type             X           Y           Z
 ---------------------------------------------------------------------
      1         17           0       -9.715254    8.283453   10.541332
      2          6           0       -8.402914    4.303395   12.196806
      3          6           0       -9.218017    3.982646   11.094747
      4          6           0      -10.117582    2.908264   11.228332
      5          6           0      -10.209760    2.193355   12.419260
      6          6           0       -9.394179    2.525917   13.501882
      7          6           0       -8.489140    3.583016   13.383219
      8          1           0       -7.693928    5.130933   12.128470
      9          1           0      -10.760540    2.641706   10.384533
     10          1           0      -10.924713    1.371447   12.506128
     11          1           0       -9.453423    1.956868   14.432012
     12          1           0       -7.849481    3.854916   14.226457
     13          6           0       -9.178687    4.742625    9.843181
     14          6           0       -8.444307    5.852476    9.619791
     15          1           0       -9.830170    4.371577    9.043804
     16          1           0       -8.466874    6.357420    8.653760
     17          1           0       -7.740424    6.245178   10.354402
     18          8           0       -0.972969   -1.829628    7.449754
     19          8           0       -8.371170   -1.318402    7.458488
     20          8           0       -7.004232    1.326751   10.494721
     21          8           0       -2.322928   -4.400384   10.556122
     22         74           0       -3.368633    0.717658    6.514706
     23         74           0       -5.999159   -3.850875    6.581390
     24         74           0       -3.573352    0.881894   11.390545
     25         74           0       -5.770737   -3.901596   11.460173
     26         74           0       -2.452186   -2.587150    6.366996
     27         74           0       -6.893651   -0.548043    6.343284
     28         74           0       -6.771445   -0.272794   11.599574
     29         74           0       -2.558877   -2.745405   11.628689
     30          8           0       -3.120759    1.917118    5.353507
     31          8           0       -6.145776   -5.101178    5.440819
     32          8           0       -2.646838    1.726492   12.537674
     33          8           0       -6.680484   -4.720046   12.636725
     34          8           0       -2.656713   -0.905619    5.587195
     35          8           0       -6.686173   -2.282855    5.622664
     36          8           0       -5.265058    0.536628   12.364475
     37          8           0       -4.055728   -3.552809   12.407435
     38          8           0        0.352536   -0.093586    9.265495
     39          8           0       -9.699508   -2.993013    9.318361
     40          8           0       -6.383502    3.406747    8.684337
     41          8           0       -2.966556   -6.493862    8.745785
     42          8           0       -1.750748    0.728328    7.489081
     43          8           0       -7.601531   -3.879746    7.553621
     44          8           0       -4.477065    2.192092   10.423198
     45          8           0       -4.860741   -5.245936   10.513016
     46          8           0       -1.629238   -3.520341    5.208710
     47          8           0       -7.765793    0.256157    5.142475
     48          8           0       -7.983129   -0.170988   12.784671
     49          8           0       -1.329336   -2.874809   12.794523
     50         74           0       -1.214503   -0.593393    8.837013
     51         74           0       -8.133249   -2.503741    8.875242
     52         74           0       -5.892049    1.837487    9.053819
     53         74           0       -3.457696   -4.920044    9.157886
     54          8           0       -4.220985   -3.124874    6.064103
     55          8           0       -5.121987   -0.052780    6.018012
     56          8           0       -6.159647   -2.026771   11.924253
     57          8           0       -3.150906   -0.994872   11.921952
     58          8           0       -4.338736    1.581241    7.852772
     59          8           0       -4.999578   -4.704976    7.920638
     60          8           0       -2.284727    0.548390   10.073499
     61          8           0       -7.054085   -3.623128   10.131101
     62          8           0       -2.566829   -3.916344    7.850664
     63          8           0       -6.793823    0.782409    7.801111
     64          8           0       -7.806221   -1.178178   10.160083
     65          8           0       -1.537984   -1.896825   10.149550
     66          8           0       -3.342656   -1.169319    8.013239
     67          8           0       -6.002334   -1.968893    8.036691
     68          8           0       -5.093344   -0.221064    9.947429
     69          8           0       -4.230288   -2.857708    9.975195
     70         19           0       -3.226399   -6.152648    5.648329
     71         19           0       -0.120761   -0.036472   12.323633
     72         19           0       -9.299926   -2.821885   12.392943
     73         23           0       -4.669192   -1.550009    8.990397
 ---------------------------------------------------------------------
 Rotational constants (GHZ):           0.0171959           0.0131689           0.0129491
 Standard basis: def2SVP (5D, 7F)
  1217 basis functions,  2313 primitive gaussians,  1337 cartesian basis functions
   321 alpha electrons      321 beta electrons
       nuclear repulsion energy     20953.2397758583 Hartrees.
 NAtoms=   73 NActive=   73 NUniq=   73 SFac= 1.00D+00 NAtFMM=   60 NAOKFM=T Big=T
 Integral buffers will be    131072 words long.
 Raffenetti 2 integral format.
 Two-electron integral symmetry is turned off.
 Nuclear repulsion after empirical dispersion term =    20952.9638069388 Hartrees.
 Force PCM accuracy= 1.00D-10.
 ------------------------------------------------------------------------------
 Polarizable Continuum Model (PCM)
 =================================
 Model                : PCM (using non-symmetric T matrix).
 Atomic radii         : SMD-Coulomb.
 Polarization charges : Total charges.
 Charge compensation  : None.
 Solution method      : On-the-fly selection.
 Cavity type          : VdW (van der Waals Surface) (Alpha=1.000).
 Cavity algorithm     : GePol (No added spheres)
                        Default sphere list used, NSphG=   73.
                        Lebedev-Laikov grids with approx.  5.0 points / Ang**2.
                        Smoothing algorithm: York/Karplus (Gamma=1.0000).
                        Polarization charges: spherical gaussians, with
                                              point-specific exponents (IZeta= 3).
                        Self-potential: point-specific (ISelfS= 7).
                        Self-field    : sphere-specific E.n sum rule (ISelfD= 2).
 1st derivatives      : Analytical E(r).r(x)/FMM algorithm (CHGder, D1EAlg=3).
                        Cavity 1st derivative terms included.
 Solvent              : Acetonitrile, Eps=  35.688000 Eps(inf)=   1.806874
 ------------------------------------------------------------------------------
 ------------------------------------------------------------------------------
 Atomic radii for non-electrostatic terms: SMD-CDS.
 ------------------------------------------------------------------------------
 Nuclear repulsion after PCM non-electrostatic terms =    20952.9580105356 Hartrees.
 One-electron integrals computed using PRISM.
   1 Symmetry operations used in ECPInt.
 ECPInt:  NShTT=  127765 NPrTT=  468030 LenC2=   96380 LenP2D=  220512.
 LDataN:  DoStor=T MaxTD1= 8 Len=  415
 NBasis=  1217 RedAO= T EigKep=  1.38D-04  NBF=  1217
 NBsUse=  1217 1.00D-06 EigRej= -1.00D+00 NBFU=  1217
 Defaulting to unpruned grid for atomic number  74.
 Defaulting to unpruned grid for atomic number  74.
 Defaulting to unpruned grid for atomic number  74.
 Defaulting to unpruned grid for atomic number  74.
 Defaulting to unpruned grid for atomic number  74.
 Defaulting to unpruned grid for atomic number  74.
 Defaulting to unpruned grid for atomic number  74.
 Defaulting to unpruned grid for atomic number  74.
 Initial guess from the checkpoint file:  "b.chk"
 B after Tr=     0.000313    0.000338    0.000193
         Rot=    1.000000   -0.000031   -0.000005    0.000016 Ang=  -0.00 deg.
 Initial guess <Sx>= 0.0000 <Sy>= 0.0000 <Sz>= 0.0000 <S**2>= 1.0217 S= 0.6277
 Requested convergence on RMS density matrix=1.00D-08 within  64 cycles.
 Requested convergence on MAX density matrix=1.00D-06.
 Requested convergence on             energy=1.00D-06.
 No special actions if energy rises.
 Defaulting to unpruned grid for atomic number  74.
 Defaulting to unpruned grid for atomic number  74.
 Defaulting to unpruned grid for atomic number  74.
 Defaulting to unpruned grid for atomic number  74.
 Defaulting to unpruned grid for atomic number  74.
 Defaulting to unpruned grid for atomic number  74.
 Defaulting to unpruned grid for atomic number  74.
 Defaulting to unpruned grid for atomic number  74.
 Defaulting to unpruned grid for atomic number  74.
 Defaulting to unpruned grid for atomic number  74.
 Defaulting to unpruned grid for atomic number  74.
 Defaulting to unpruned grid for atomic number  74.
 Defaulting to unpruned grid for atomic number  74.
 Defaulting to unpruned grid for atomic number  74.
 Defaulting to unpruned grid for atomic number  74.
 Defaulting to unpruned grid for atomic number  74.
 Defaulting to unpruned grid for atomic number  74.
 Defaulting to unpruned grid for atomic number  74.
 Defaulting to unpruned grid for atomic number  74.
 Defaulting to unpruned grid for atomic number  74.
 Defaulting to unpruned grid for atomic number  74.
 Defaulting to unpruned grid for atomic number  74.
 Defaulting to unpruned grid for atomic number  74.
 Defaulting to unpruned grid for atomic number  74.
 Defaulting to unpruned grid for atomic number  74.
 Defaulting to unpruned grid for atomic number  74.
 Defaulting to unpruned grid for atomic number  74.
 Defaulting to unpruned grid for atomic number  74.
 Defaulting to unpruned grid for atomic number  74.
 Defaulting to unpruned grid for atomic number  74.
 Defaulting to unpruned grid for atomic number  74.
 Defaulting to unpruned grid for atomic number  74.
 Defaulting to unpruned grid for atomic number  74.
 Defaulting to unpruned grid for atomic number  74.
 Defaulting to unpruned grid for atomic number  74.
 Defaulting to unpruned grid for atomic number  74.
 Defaulting to unpruned grid for atomic number  74.
 Defaulting to unpruned grid for atomic number  74.
 Defaulting to unpruned grid for atomic number  74.
 Defaulting to unpruned grid for atomic number  74.
 Defaulting to unpruned grid for atomic number  74.
 Defaulting to unpruned grid for atomic number  74.
 Defaulting to unpruned grid for atomic number  74.
 Defaulting to unpruned grid for atomic number  74.
 Defaulting to unpruned grid for atomic number  74.
 Defaulting to unpruned grid for atomic number  74.
 Defaulting to unpruned grid for atomic number  74.
 Defaulting to unpruned grid for atomic number  74.
 Defaulting to unpruned grid for atomic number  74.
 Defaulting to unpruned grid for atomic number  74.
 Defaulting to unpruned grid for atomic number  74.
 Defaulting to unpruned grid for atomic number  74.
 Defaulting to unpruned grid for atomic number  74.
 Defaulting to unpruned grid for atomic number  74.
 Defaulting to unpruned grid for atomic number  74.
 Defaulting to unpruned grid for atomic number  74.
 Inv3:  Mode=1 IEnd=    87706947.
 Iteration    1 A*A^-1 deviation from unit magnitude is 3.22D-15 for   2078.
 Iteration    1 A*A^-1 deviation from orthogonality  is 2.70D-15 for    908     85.
 Iteration    1 A^-1*A deviation from unit magnitude is 4.22D-15 for   5060.
 Iteration    1 A^-1*A deviation from orthogonality  is 4.16D-11 for   4046   4022.
 Restarting incremental Fock formation.
 Error on total polarization charges =  0.01574
 SCF Done:  E(UwB97XD) =  -7327.70231154     A.U. after   37 cycles
            NFock= 37  Conv=0.46D-09     -V/T= 2.0831
 <Sx>= 0.0000 <Sy>= 0.0000 <Sz>= 0.0000 <S**2>= 1.0216 S= 0.6277
 <L.S>=  0.00000000000    
 SMD-CDS (non-electrostatic) energy       (kcal/mol) =      -3.64
 (included in total energy above)
 Annihilation of the first spin contaminant:
 S**2 before annihilation     1.0216,   after     0.1733
 QCSCF skips out because SCF is already converged.

 **********************************************************************

            Population analysis using the SCF Density.

 **********************************************************************

 Alpha  occ. eigenvalues -- -197.10758-129.99108-129.99107-129.99020-101.62107
 Alpha  occ. eigenvalues --  -22.44434 -19.28508 -19.28507 -19.28447 -19.28438
 Alpha  occ. eigenvalues --  -19.28387 -19.28379 -19.28367 -19.28356 -19.28328
 Alpha  occ. eigenvalues --  -19.28265 -19.28225 -19.28158 -19.26990 -19.26964
 Alpha  occ. eigenvalues --  -19.26951 -19.26928 -19.26922 -19.26913 -19.26875
 Alpha  occ. eigenvalues --  -19.26873 -19.26870 -19.26858 -19.26855 -19.26848
 Alpha  occ. eigenvalues --  -19.26844 -19.26841 -19.26833 -19.26814 -19.26813
 Alpha  occ. eigenvalues --  -19.26798 -19.26797 -19.26785 -19.26776 -19.26734
 Alpha  occ. eigenvalues --  -19.26689 -19.26651 -19.24745 -19.24704 -19.24678
 Alpha  occ. eigenvalues --  -19.24659 -18.94009 -18.92925 -18.92880 -13.36516
 Alpha  occ. eigenvalues --  -13.36507 -13.36423 -10.69443 -10.69439 -10.69438
 Alpha  occ. eigenvalues --  -10.69436 -10.69432 -10.69427 -10.69350 -10.69346
 Alpha  occ. eigenvalues --  -10.69345 -10.33088 -10.32332 -10.32036 -10.31050
 Alpha  occ. eigenvalues --  -10.31021 -10.31016 -10.30581 -10.30553  -9.52512
 Alpha  occ. eigenvalues --   -7.27397  -7.27053  -7.27050  -3.21078  -3.21065
 Alpha  occ. eigenvalues --   -3.21045  -3.21007  -3.21005  -3.20994  -3.20984
 Alpha  occ. eigenvalues --   -3.20977  -3.20965  -3.20837  -3.20827  -3.20799
 Alpha  occ. eigenvalues --   -2.78752  -1.85323  -1.85274  -1.85265  -1.85224
 Alpha  occ. eigenvalues --   -1.85125  -1.85064  -1.85050  -1.85021  -1.85010
 Alpha  occ. eigenvalues --   -1.84999  -1.84979  -1.84929  -1.84380  -1.84266
 Alpha  occ. eigenvalues --   -1.84259  -1.84238  -1.84201  -1.84191  -1.84136
 Alpha  occ. eigenvalues --   -1.84110  -1.84088  -1.84076  -1.84047  -1.84040
 Alpha  occ. eigenvalues --   -1.83935  -1.83899  -1.83873  -1.83867  -1.83845
 Alpha  occ. eigenvalues --   -1.83810  -1.83781  -1.83773  -1.83764  -1.83673
 Alpha  occ. eigenvalues --   -1.83665  -1.83648  -1.81920  -1.81584  -1.81562
 Alpha  occ. eigenvalues --   -1.50218  -1.50213  -1.50134  -1.08609  -1.06987
 Alpha  occ. eigenvalues --   -1.06947  -1.06908  -1.05994  -1.05988  -1.05965
 Alpha  occ. eigenvalues --   -1.04571  -1.04562  -1.04553  -1.03943  -1.03937
 Alpha  occ. eigenvalues --   -1.03691  -1.03343  -1.03316  -1.03295  -1.03057
 Alpha  occ. eigenvalues --   -1.03044  -1.02250  -1.02223  -1.02217  -1.02097
 Alpha  occ. eigenvalues --   -1.02029  -1.02004  -1.01912  -1.01902  -1.01801
 Alpha  occ. eigenvalues --   -1.01765  -1.01745  -1.01610  -1.01579  -1.01569
 Alpha  occ. eigenvalues --   -1.01308  -1.00823  -1.00797  -1.00746  -1.00741
 Alpha  occ. eigenvalues --   -0.99990  -0.99931  -0.99872  -0.96227  -0.89352
 Alpha  occ. eigenvalues --   -0.85663  -0.85658  -0.85587  -0.85520  -0.85506
 Alpha  occ. eigenvalues --   -0.85504  -0.85476  -0.85429  -0.85422  -0.84305
 Alpha  occ. eigenvalues --   -0.82494  -0.80991  -0.71950  -0.69662  -0.65128
 Alpha  occ. eigenvalues --   -0.62287  -0.61677  -0.61622  -0.61595  -0.60702
 Alpha  occ. eigenvalues --   -0.58969  -0.58943  -0.58934  -0.58894  -0.58823
 Alpha  occ. eigenvalues --   -0.58734  -0.58708  -0.58671  -0.58539  -0.57350
 Alpha  occ. eigenvalues --   -0.57316  -0.57282  -0.56996  -0.56800  -0.56483
 Alpha  occ. eigenvalues --   -0.56438  -0.56396  -0.56002  -0.55849  -0.55365
 Alpha  occ. eigenvalues --   -0.55356  -0.55318  -0.54428  -0.54197  -0.54173
 Alpha  occ. eigenvalues --   -0.54019  -0.53647  -0.53591  -0.53577  -0.52792
 Alpha  occ. eigenvalues --   -0.52656  -0.52599  -0.52485  -0.52453  -0.51492
 Alpha  occ. eigenvalues --   -0.51479  -0.51469  -0.51387  -0.51328  -0.50820
 Alpha  occ. eigenvalues --   -0.50559  -0.50534  -0.50483  -0.50393  -0.50338
 Alpha  occ. eigenvalues --   -0.50281  -0.50097  -0.50053  -0.50036  -0.49783
 Alpha  occ. eigenvalues --   -0.49685  -0.49655  -0.49508  -0.49486  -0.49302
 Alpha  occ. eigenvalues --   -0.49259  -0.49195  -0.49084  -0.49024  -0.48956
 Alpha  occ. eigenvalues --   -0.48729  -0.48555  -0.48535  -0.48481  -0.47742
 Alpha  occ. eigenvalues --   -0.47717  -0.47248  -0.46487  -0.46050  -0.46031
 Alpha  occ. eigenvalues --   -0.45882  -0.45870  -0.45760  -0.45633  -0.45220
 Alpha  occ. eigenvalues --   -0.45142  -0.45133  -0.44874  -0.44694  -0.44523
 Alpha  occ. eigenvalues --   -0.44490  -0.44462  -0.44283  -0.44274  -0.44258
 Alpha  occ. eigenvalues --   -0.43412  -0.43188  -0.42573  -0.42543  -0.42477
 Alpha  occ. eigenvalues --   -0.42310  -0.42177  -0.42161  -0.42156  -0.41637
 Alpha  occ. eigenvalues --   -0.41620  -0.41579  -0.41042  -0.40999  -0.40801
 Alpha  occ. eigenvalues --   -0.40781  -0.40775  -0.40447  -0.40438  -0.40403
 Alpha  occ. eigenvalues --   -0.40235  -0.40206  -0.40189  -0.40147  -0.39888
 Alpha  occ. eigenvalues --   -0.39361  -0.39285  -0.39268  -0.39176  -0.39056
 Alpha  occ. eigenvalues --   -0.38983  -0.38950  -0.38862  -0.38765  -0.38725
 Alpha  occ. eigenvalues --   -0.38347  -0.38323  -0.38290  -0.38180  -0.37212
 Alpha  occ. eigenvalues --   -0.37194  -0.34709  -0.34678  -0.33703  -0.30504
 Alpha  occ. eigenvalues --   -0.25710
 Alpha virt. eigenvalues --   -0.11968  -0.06157  -0.06110  -0.04701  -0.04657
 Alpha virt. eigenvalues --   -0.04547  -0.01521  -0.01385  -0.01324  -0.01077
 Alpha virt. eigenvalues --   -0.00907  -0.00873  -0.00835  -0.00152  -0.00080
 Alpha virt. eigenvalues --   -0.00047   0.00697   0.00723   0.00751   0.00924
 Alpha virt. eigenvalues --    0.01032   0.01214   0.01822   0.01874   0.01928
 Alpha virt. eigenvalues --    0.02485   0.02717   0.02786   0.02849   0.03519
 Alpha virt. eigenvalues --    0.03567   0.03733   0.03846   0.03957   0.04302
 Alpha virt. eigenvalues --    0.04337   0.04344   0.04375   0.04610   0.05034
 Alpha virt. eigenvalues --    0.05099   0.05963   0.06457   0.07978   0.08202
 Alpha virt. eigenvalues --    0.08441   0.08589   0.08783   0.08864   0.09301
 Alpha virt. eigenvalues --    0.09700   0.09819   0.09844   0.09910   0.09988
 Alpha virt. eigenvalues --    0.10007   0.10170   0.10335   0.10876   0.10960
 Alpha virt. eigenvalues --    0.11547   0.11606   0.11896   0.12128   0.12191
 Alpha virt. eigenvalues --    0.12397   0.12413   0.12461   0.12831   0.13291
 Alpha virt. eigenvalues --    0.13405   0.13582   0.14065   0.14272   0.14723
 Alpha virt. eigenvalues --    0.14902   0.14947   0.15192   0.15342   0.15846
 Alpha virt. eigenvalues --    0.16065   0.16768   0.17044   0.17628   0.17913
 Alpha virt. eigenvalues --    0.18273   0.18405   0.18554   0.18714   0.18909
 Alpha virt. eigenvalues --    0.19223   0.19332   0.19456   0.19510   0.19546
 Alpha virt. eigenvalues --    0.19662   0.19822   0.20000   0.20613   0.20883
 Alpha virt. eigenvalues --    0.21075   0.21273   0.21279   0.21518   0.21559
 Alpha virt. eigenvalues --    0.21634   0.21859   0.21901   0.22050   0.22181
 Alpha virt. eigenvalues --    0.22378   0.22684   0.23091   0.23118   0.23243
 Alpha virt. eigenvalues --    0.23288   0.23443   0.23752   0.24001   0.24281
 Alpha virt. eigenvalues --    0.24454   0.24625   0.24701   0.25001   0.25054
 Alpha virt. eigenvalues --    0.25359   0.25540   0.25561   0.26168   0.26802
 Alpha virt. eigenvalues --    0.26844   0.27119   0.27295   0.27658   0.27834
 Alpha virt. eigenvalues --    0.27984   0.28475   0.28684   0.28769   0.29180
 Alpha virt. eigenvalues --    0.29225   0.29259   0.29356   0.29518   0.29704
 Alpha virt. eigenvalues --    0.30083   0.30393   0.30696   0.31241   0.31506
 Alpha virt. eigenvalues --    0.31794   0.32218   0.32306   0.32752   0.33083
 Alpha virt. eigenvalues --    0.33594   0.34356   0.35341   0.37011   0.37047
 Alpha virt. eigenvalues --    0.38222   0.38614   0.38982   0.39281   0.39469
 Alpha virt. eigenvalues --    0.40340   0.41361   0.41714   0.41833   0.41931
 Alpha virt. eigenvalues --    0.42166   0.42430   0.42580   0.43385   0.43943
 Alpha virt. eigenvalues --    0.44187   0.44378   0.44829   0.45251   0.45403
 Alpha virt. eigenvalues --    0.45518   0.45676   0.45875   0.46403   0.46691
 Alpha virt. eigenvalues --    0.46875   0.47166   0.47762   0.47840   0.48134
 Alpha virt. eigenvalues --    0.48263   0.48391   0.48702   0.49006   0.49040
 Alpha virt. eigenvalues --    0.49476   0.49747   0.49852   0.49958   0.50031
 Alpha virt. eigenvalues --    0.50159   0.50346   0.50552   0.50712   0.50794
 Alpha virt. eigenvalues --    0.51198   0.51272   0.51660   0.51739   0.51992
 Alpha virt. eigenvalues --    0.52464   0.52632   0.52880   0.52950   0.53283
 Alpha virt. eigenvalues --    0.53799   0.53971   0.54195   0.54442   0.54576
 Alpha virt. eigenvalues --    0.54692   0.55450   0.55958   0.55999   0.56446
 Alpha virt. eigenvalues --    0.56636   0.56770   0.57046   0.57139   0.57649
 Alpha virt. eigenvalues --    0.58288   0.58752   0.58949   0.59271   0.59501
 Alpha virt. eigenvalues --    0.59924   0.60480   0.60746   0.61091   0.61604
 Alpha virt. eigenvalues --    0.61890   0.62761   0.63616   0.63969   0.64642
 Alpha virt. eigenvalues --    0.65024   0.65400   0.66427   0.66603   0.66662
 Alpha virt. eigenvalues --    0.67865   0.68231   0.68299   0.68790   0.69296
 Alpha virt. eigenvalues --    0.69352   0.69940   0.71110   0.71568   0.71640
 Alpha virt. eigenvalues --    0.72060   0.72344   0.72634   0.72920   0.73138
 Alpha virt. eigenvalues --    0.73219   0.73413   0.73519   0.73681   0.73904
 Alpha virt. eigenvalues --    0.73985   0.74155   0.75101   0.75517   0.75755
 Alpha virt. eigenvalues --    0.76010   0.76821   0.76932   0.78001   0.78219
 Alpha virt. eigenvalues --    0.78855   0.79429   0.79914   0.80253   0.80594
 Alpha virt. eigenvalues --    0.80745   0.81061   0.81837   0.82003   0.82257
 Alpha virt. eigenvalues --    0.82976   0.83370   0.83879   0.83930   0.84405
 Alpha virt. eigenvalues --    0.84499   0.84878   0.85312   0.86480   0.87062
 Alpha virt. eigenvalues --    0.88210   0.88262   0.89083   0.89414   0.89949
 Alpha virt. eigenvalues --    0.90208   0.90522   0.90718   0.91089   0.91670
 Alpha virt. eigenvalues --    0.91729   0.92173   0.92451   0.92596   0.92812
 Alpha virt. eigenvalues --    0.93036   0.93123   0.93398   0.93568   0.94406
 Alpha virt. eigenvalues --    0.94744   0.95203   0.95616   0.96680   0.97137
 Alpha virt. eigenvalues --    0.97267   0.97363   0.97534   0.97999   0.98506
 Alpha virt. eigenvalues --    0.99253   0.99441   0.99613   0.99873   1.00342
 Alpha virt. eigenvalues --    1.00420   1.00488   1.00664   1.00840   1.01015
 Alpha virt. eigenvalues --    1.01184   1.01240   1.01719   1.02166   1.02454
 Alpha virt. eigenvalues --    1.02579   1.02834   1.03345   1.03625   1.03820
 Alpha virt. eigenvalues --    1.03970   1.04174   1.04700   1.04824   1.04953
 Alpha virt. eigenvalues --    1.05205   1.05433   1.05547   1.05899   1.06659
 Alpha virt. eigenvalues --    1.06976   1.07102   1.07373   1.07500   1.07595
 Alpha virt. eigenvalues --    1.07875   1.07983   1.08233   1.08482   1.08798
 Alpha virt. eigenvalues --    1.09007   1.09199   1.09473   1.10281   1.10881
 Alpha virt. eigenvalues --    1.11096   1.11334   1.11857   1.12172   1.12328
 Alpha virt. eigenvalues --    1.12452   1.12935   1.13082   1.13198   1.13305
 Alpha virt. eigenvalues --    1.13471   1.13721   1.13817   1.14074   1.14304
 Alpha virt. eigenvalues --    1.14572   1.14695   1.15288   1.15414   1.16049
 Alpha virt. eigenvalues --    1.16346   1.17074   1.17522   1.17799   1.18482
 Alpha virt. eigenvalues --    1.18854   1.19562   1.19848   1.19992   1.20248
 Alpha virt. eigenvalues --    1.20948   1.22305   1.22783   1.22927   1.22945
 Alpha virt. eigenvalues --    1.23109   1.23338   1.23646   1.24467   1.24507
 Alpha virt. eigenvalues --    1.25756   1.25958   1.27017   1.27325   1.27563
 Alpha virt. eigenvalues --    1.28080   1.28729   1.29526   1.29849   1.30190
 Alpha virt. eigenvalues --    1.30488   1.30715   1.30761   1.30991   1.31551
 Alpha virt. eigenvalues --    1.31722   1.31978   1.32138   1.32268   1.32358
 Alpha virt. eigenvalues --    1.32526   1.32719   1.33059   1.33092   1.34162
 Alpha virt. eigenvalues --    1.34681   1.34713   1.34876   1.35368   1.35448
 Alpha virt. eigenvalues --    1.35573   1.35855   1.36093   1.36255   1.36457
 Alpha virt. eigenvalues --    1.36682   1.36821   1.37713   1.37872   1.38058
 Alpha virt. eigenvalues --    1.38108   1.38386   1.38650   1.38719   1.38881
 Alpha virt. eigenvalues --    1.39035   1.39312   1.39406   1.39558   1.39634
 Alpha virt. eigenvalues --    1.40118   1.40172   1.40409   1.40649   1.40913
 Alpha virt. eigenvalues --    1.41078   1.41128   1.41307   1.41695   1.41814
 Alpha virt. eigenvalues --    1.42109   1.42273   1.42485   1.42552   1.42701
 Alpha virt. eigenvalues --    1.43054   1.43296   1.43570   1.43642   1.43973
 Alpha virt. eigenvalues --    1.44328   1.44435   1.44554   1.45249   1.45281
 Alpha virt. eigenvalues --    1.45550   1.45660   1.46028   1.46524   1.46888
 Alpha virt. eigenvalues --    1.47708   1.48110   1.49501   1.49674   1.49776
 Alpha virt. eigenvalues --    1.50220   1.50413   1.51823   1.52391   1.52432
 Alpha virt. eigenvalues --    1.52504   1.52932   1.53285   1.53693   1.54943
 Alpha virt. eigenvalues --    1.55245   1.57485   1.57969   1.58036   1.58181
 Alpha virt. eigenvalues --    1.58416   1.58778   1.59007   1.59386   1.59981
 Alpha virt. eigenvalues --    1.60519   1.60878   1.61190   1.61578   1.61854
 Alpha virt. eigenvalues --    1.61907   1.62026   1.62569   1.63105   1.63944
 Alpha virt. eigenvalues --    1.64517   1.64708   1.64879   1.65343   1.65558
 Alpha virt. eigenvalues --    1.65942   1.66612   1.67922   1.68246   1.69692
 Alpha virt. eigenvalues --    1.70344   1.70767   1.71283   1.72223   1.73122
 Alpha virt. eigenvalues --    1.73259   1.73389   1.74011   1.74195   1.74808
 Alpha virt. eigenvalues --    1.75618   1.76241   1.77414   1.77550   1.77778
 Alpha virt. eigenvalues --    1.78180   1.78236   1.78853   1.79001   1.79380
 Alpha virt. eigenvalues --    1.79710   1.80732   1.80923   1.81121   1.81500
 Alpha virt. eigenvalues --    1.81868   1.82727   1.83562   1.83853   1.83990
 Alpha virt. eigenvalues --    1.84419   1.84834   1.85032   1.85365   1.85779
 Alpha virt. eigenvalues --    1.85963   1.86416   1.86674   1.87174   1.87540
 Alpha virt. eigenvalues --    1.88164   1.88274   1.88606   1.88858   1.89122
 Alpha virt. eigenvalues --    1.89370   1.90208   1.91262   1.92141   1.92702
 Alpha virt. eigenvalues --    1.93150   1.93175   1.93737   1.93866   1.94679
 Alpha virt. eigenvalues --    1.96025   1.96386   1.97628   1.97809   1.98188
 Alpha virt. eigenvalues --    1.98456   2.01512   2.01847   2.01992   2.02358
 Alpha virt. eigenvalues --    2.04682   2.05114   2.07011   2.07847   2.08368
 Alpha virt. eigenvalues --    2.10584   2.10826   2.11314   2.12472   2.13016
 Alpha virt. eigenvalues --    2.13491   2.14612   2.14846   2.15407   2.17508
 Alpha virt. eigenvalues --    2.18190   2.18665   2.18998   2.19172   2.20228
 Alpha virt. eigenvalues --    2.20603   2.20739   2.21591   2.24387   2.26106
 Alpha virt. eigenvalues --    2.26178   2.26701   2.27126   2.28427   2.29549
 Alpha virt. eigenvalues --    2.29862   2.30334   2.31309   2.32188   2.32579
 Alpha virt. eigenvalues --    2.33012   2.33499   2.33647   2.34321   2.34429
 Alpha virt. eigenvalues --    2.34718   2.38637   2.39485   2.41522   2.42730
 Alpha virt. eigenvalues --    2.42904   2.48015   2.49237   2.54461   2.65003
 Alpha virt. eigenvalues --    2.66784   2.67133   2.67140   2.67296   2.68187
 Alpha virt. eigenvalues --    2.68440   2.69118   2.69187   2.69217   2.69567
 Alpha virt. eigenvalues --    2.69597   2.69704   2.69790   2.69859   2.70052
 Alpha virt. eigenvalues --    2.70073   2.70092   2.70478   2.70621   2.70723
 Alpha virt. eigenvalues --    2.70775   2.70833   2.70891   2.71308   2.71545
 Alpha virt. eigenvalues --    2.71672   2.72042   2.72717   2.72742   2.72922
 Alpha virt. eigenvalues --    2.73140   2.73228   2.73519   2.73626   2.73679
 Alpha virt. eigenvalues --    2.73780   2.74135   2.74205   2.74235   2.75271
 Alpha virt. eigenvalues --    2.75417   2.75483   2.75582   2.75612   2.75661
 Alpha virt. eigenvalues --    2.75805   2.75840   2.76039   2.76090   2.76152
 Alpha virt. eigenvalues --    2.76245   2.76404   2.76522   2.76866   2.77346
 Alpha virt. eigenvalues --    2.77430   2.77591   2.77957   2.78219   2.78512
 Alpha virt. eigenvalues --    2.78665   2.79051   2.79375   2.79540   2.79618
 Alpha virt. eigenvalues --    2.79716   2.79758   2.79975   2.80219   2.81119
 Alpha virt. eigenvalues --    2.82072   2.82338   2.82462   2.82631   2.82762
 Alpha virt. eigenvalues --    2.82942   2.83016   2.83428   2.83785   2.84656
 Alpha virt. eigenvalues --    2.84695   2.85049   2.85270   2.85465   2.85715
 Alpha virt. eigenvalues --    2.85908   2.86103   2.86479   2.87150   2.87362
 Alpha virt. eigenvalues --    2.87638   2.88411   2.88655   2.88804   2.88835
 Alpha virt. eigenvalues --    2.88926   2.89225   2.89254   2.89317   2.89906
 Alpha virt. eigenvalues --    2.90857   2.90977   2.91995   2.92052   2.92129
 Alpha virt. eigenvalues --    2.92579   2.92641   2.92672   2.93036   2.93100
 Alpha virt. eigenvalues --    2.93632   2.93861   2.94367   2.94526   2.94686
 Alpha virt. eigenvalues --    2.94752   2.94792   2.95016   2.95291   2.95676
 Alpha virt. eigenvalues --    2.95896   2.95995   2.96107   2.96321   2.96354
 Alpha virt. eigenvalues --    2.96576   2.96740   2.96828   2.97210   2.97403
 Alpha virt. eigenvalues --    2.97543   2.98063   2.98215   2.98283   2.98912
 Alpha virt. eigenvalues --    2.99039   2.99061   2.99443   2.99573   2.99707
 Alpha virt. eigenvalues --    2.99864   3.00191   3.00370   3.00674   3.00765
 Alpha virt. eigenvalues --    3.01335   3.01503   3.01958   3.02338   3.02441
 Alpha virt. eigenvalues --    3.02632   3.02887   3.03358   3.04038   3.06899
 Alpha virt. eigenvalues --    3.08337   3.08521   3.08571   3.08714   3.08982
 Alpha virt. eigenvalues --    3.09780   3.10025   3.10091   3.10185   3.13718
 Alpha virt. eigenvalues --    3.13804   3.13830   3.14640   3.14849   3.15072
 Alpha virt. eigenvalues --    3.16403   3.16477   3.16734   3.22189   3.27821
 Alpha virt. eigenvalues --    3.29480   3.29602   3.30135   3.42627   3.43082
 Alpha virt. eigenvalues --    3.43532   3.44483   3.45523   3.46222   3.46369
 Alpha virt. eigenvalues --    3.47362   3.47688   3.47856   3.48828   3.48961
 Alpha virt. eigenvalues --    3.49406   3.52912   3.53687   3.54185   3.55307
 Alpha virt. eigenvalues --    3.55557   3.56128   3.56579   3.57044   3.57240
 Alpha virt. eigenvalues --    3.57367   3.57427   3.57664   3.58256   3.59388
 Alpha virt. eigenvalues --    3.59551   3.60712   3.61312   3.61577   3.62072
 Alpha virt. eigenvalues --    3.62640   3.63174   3.63542   3.63862   3.64364
 Alpha virt. eigenvalues --    3.73023   3.77403  68.66899  68.67820  68.68932
 Alpha virt. eigenvalues --   68.71070  68.74863  68.76082  68.83740  68.84645
 Alpha virt. eigenvalues --   68.85153  68.88026  68.89157  68.90175 576.25342
 Alpha virt. eigenvalues --  576.26243 576.27334 576.29420 576.33228 576.34422
 Alpha virt. eigenvalues --  576.41937 576.42825 576.43312 576.46093 576.47197
 Alpha virt. eigenvalues --  576.48204
  Beta  occ. eigenvalues -- -197.10741-129.99108-129.99107-129.99020-101.62508
  Beta  occ. eigenvalues --  -22.43172 -19.28509 -19.28508 -19.28449 -19.28434
  Beta  occ. eigenvalues --  -19.28381 -19.28373 -19.28360 -19.28350 -19.28322
  Beta  occ. eigenvalues --  -19.28266 -19.28227 -19.28152 -19.26990 -19.26963
  Beta  occ. eigenvalues --  -19.26951 -19.26928 -19.26922 -19.26912 -19.26874
  Beta  occ. eigenvalues --  -19.26872 -19.26871 -19.26858 -19.26855 -19.26849
  Beta  occ. eigenvalues --  -19.26844 -19.26842 -19.26833 -19.26815 -19.26813
  Beta  occ. eigenvalues --  -19.26802 -19.26799 -19.26785 -19.26777 -19.26734
  Beta  occ. eigenvalues --  -19.26689 -19.26651 -19.24722 -19.24684 -19.24653
  Beta  occ. eigenvalues --  -19.24633 -18.93664 -18.91485 -18.91396 -13.36516
  Beta  occ. eigenvalues --  -13.36507 -13.36423 -10.69443 -10.69439 -10.69438
  Beta  occ. eigenvalues --  -10.69436 -10.69432 -10.69427 -10.69350 -10.69346
  Beta  occ. eigenvalues --  -10.69345 -10.33372 -10.32448 -10.31983 -10.31151
  Beta  occ. eigenvalues --  -10.31143 -10.31123 -10.30521 -10.30494  -9.52962
  Beta  occ. eigenvalues --   -7.28809  -7.27361  -7.27357  -3.21073  -3.21064
  Beta  occ. eigenvalues --   -3.21045  -3.21005  -3.21001  -3.20988  -3.20979
  Beta  occ. eigenvalues --   -3.20970  -3.20959  -3.20836  -3.20822  -3.20794
  Beta  occ. eigenvalues --   -2.74692  -1.85318  -1.85269  -1.85259  -1.85216
  Beta  occ. eigenvalues --   -1.85120  -1.85058  -1.85045  -1.85015  -1.85001
  Beta  occ. eigenvalues --   -1.84990  -1.84974  -1.84921  -1.84377  -1.84264
  Beta  occ. eigenvalues --   -1.84255  -1.84236  -1.84198  -1.84188  -1.84133
  Beta  occ. eigenvalues --   -1.84108  -1.84085  -1.84073  -1.84044  -1.84037
  Beta  occ. eigenvalues --   -1.83933  -1.83896  -1.83871  -1.83864  -1.83842
  Beta  occ. eigenvalues --   -1.83807  -1.83778  -1.83770  -1.83761  -1.83671
  Beta  occ. eigenvalues --   -1.83662  -1.83645  -1.80583  -1.75924  -1.75730
  Beta  occ. eigenvalues --   -1.50218  -1.50213  -1.50134  -1.08592  -1.06966
  Beta  occ. eigenvalues --   -1.06927  -1.06881  -1.05991  -1.05987  -1.05963
  Beta  occ. eigenvalues --   -1.04571  -1.04563  -1.04552  -1.03943  -1.03938
  Beta  occ. eigenvalues --   -1.03624  -1.03311  -1.03278  -1.03264  -1.03056
  Beta  occ. eigenvalues --   -1.03036  -1.02231  -1.02204  -1.02195  -1.02089
  Beta  occ. eigenvalues --   -1.02025  -1.01992  -1.01907  -1.01887  -1.01796
  Beta  occ. eigenvalues --   -1.01763  -1.01740  -1.01604  -1.01576  -1.01554
  Beta  occ. eigenvalues --   -1.01308  -1.00813  -1.00769  -1.00746  -1.00737
  Beta  occ. eigenvalues --   -0.99852  -0.99791  -0.99750  -0.96457  -0.90029
  Beta  occ. eigenvalues --   -0.85663  -0.85658  -0.85587  -0.85520  -0.85506
  Beta  occ. eigenvalues --   -0.85504  -0.85476  -0.85428  -0.85422  -0.84605
  Beta  occ. eigenvalues --   -0.84377  -0.82725  -0.72208  -0.69784  -0.65375
  Beta  occ. eigenvalues --   -0.62286  -0.61677  -0.61621  -0.61595  -0.60907
  Beta  occ. eigenvalues --   -0.58964  -0.58940  -0.58933  -0.58806  -0.58751
  Beta  occ. eigenvalues --   -0.58718  -0.58695  -0.58653  -0.58539  -0.57329
  Beta  occ. eigenvalues --   -0.57161  -0.57113  -0.57018  -0.56911  -0.56485
  Beta  occ. eigenvalues --   -0.56407  -0.56361  -0.55804  -0.55592  -0.55344
  Beta  occ. eigenvalues --   -0.55335  -0.55320  -0.54618  -0.54186  -0.54163
  Beta  occ. eigenvalues --   -0.54005  -0.53615  -0.53573  -0.53532  -0.52860
  Beta  occ. eigenvalues --   -0.52657  -0.52585  -0.52465  -0.52447  -0.51478
  Beta  occ. eigenvalues --   -0.51453  -0.51450  -0.51327  -0.51270  -0.51016
  Beta  occ. eigenvalues --   -0.50547  -0.50468  -0.50458  -0.50335  -0.50241
  Beta  occ. eigenvalues --   -0.50173  -0.50064  -0.50053  -0.50005  -0.49731
  Beta  occ. eigenvalues --   -0.49664  -0.49623  -0.49498  -0.49476  -0.49301
  Beta  occ. eigenvalues --   -0.49235  -0.49193  -0.49048  -0.49004  -0.48931
  Beta  occ. eigenvalues --   -0.48721  -0.48554  -0.48530  -0.48474  -0.47933
  Beta  occ. eigenvalues --   -0.47698  -0.47661  -0.46055  -0.45903  -0.45872
  Beta  occ. eigenvalues --   -0.45805  -0.45677  -0.45574  -0.45219  -0.45162
  Beta  occ. eigenvalues --   -0.45140  -0.45057  -0.44874  -0.44693  -0.44497
  Beta  occ. eigenvalues --   -0.44479  -0.44425  -0.44276  -0.44235  -0.44216
  Beta  occ. eigenvalues --   -0.43406  -0.43291  -0.42524  -0.42486  -0.42441
  Beta  occ. eigenvalues --   -0.42261  -0.42239  -0.42133  -0.42116  -0.41657
  Beta  occ. eigenvalues --   -0.41613  -0.41559  -0.41468  -0.41044  -0.40966
  Beta  occ. eigenvalues --   -0.40771  -0.40738  -0.40713  -0.40432  -0.40425
  Beta  occ. eigenvalues --   -0.40388  -0.40188  -0.40177  -0.40159  -0.39831
  Beta  occ. eigenvalues --   -0.39669  -0.39358  -0.39190  -0.39136  -0.39135
  Beta  occ. eigenvalues --   -0.38949  -0.38922  -0.38865  -0.38744  -0.38715
  Beta  occ. eigenvalues --   -0.38676  -0.38340  -0.38315  -0.38282  -0.37715
  Beta  occ. eigenvalues --   -0.37213  -0.37190  -0.35646  -0.35612  -0.33989
  Beta  occ. eigenvalues --   -0.30890
  Beta virt. eigenvalues --   -0.06155  -0.06111  -0.04700  -0.04655  -0.04546
  Beta virt. eigenvalues --   -0.01517  -0.01380  -0.01319  -0.01071  -0.00902
  Beta virt. eigenvalues --   -0.00869  -0.00830  -0.00142  -0.00069  -0.00038
  Beta virt. eigenvalues --    0.00707   0.00734   0.00762   0.00930   0.01032
  Beta virt. eigenvalues --    0.01523   0.01884   0.01908   0.01947   0.02496
  Beta virt. eigenvalues --    0.02775   0.02833   0.02855   0.03504   0.03699
  Beta virt. eigenvalues --    0.03797   0.04034   0.04060   0.04310   0.04347
  Beta virt. eigenvalues --    0.04360   0.04399   0.04616   0.05035   0.05112
  Beta virt. eigenvalues --    0.05562   0.06480   0.07245   0.08472   0.08545
  Beta virt. eigenvalues --    0.08607   0.08647   0.09333   0.09459   0.09596
  Beta virt. eigenvalues --    0.09825   0.09894   0.10023   0.10028   0.10091
  Beta virt. eigenvalues --    0.10144   0.10337   0.10560   0.10889   0.10970
  Beta virt. eigenvalues --    0.11430   0.11584   0.11660   0.11913   0.12147
  Beta virt. eigenvalues --    0.12296   0.12418   0.12476   0.12501   0.13310
  Beta virt. eigenvalues --    0.13416   0.13588   0.14047   0.14267   0.14783
  Beta virt. eigenvalues --    0.14949   0.15038   0.15216   0.15347   0.15852
  Beta virt. eigenvalues --    0.16044   0.16718   0.17054   0.17621   0.17898
  Beta virt. eigenvalues --    0.18277   0.18405   0.18572   0.18740   0.18923
  Beta virt. eigenvalues --    0.19274   0.19368   0.19474   0.19545   0.19591
  Beta virt. eigenvalues --    0.19892   0.19982   0.20376   0.20624   0.20887
  Beta virt. eigenvalues --    0.21076   0.21264   0.21283   0.21526   0.21561
  Beta virt. eigenvalues --    0.21642   0.21881   0.21911   0.22061   0.22182
  Beta virt. eigenvalues --    0.22386   0.22690   0.23067   0.23110   0.23254
  Beta virt. eigenvalues --    0.23269   0.23454   0.23725   0.23979   0.24223
  Beta virt. eigenvalues --    0.24332   0.24619   0.24712   0.24957   0.25061
  Beta virt. eigenvalues --    0.25349   0.25510   0.25547   0.26054   0.26803
  Beta virt. eigenvalues --    0.26845   0.27116   0.27284   0.27630   0.27834
  Beta virt. eigenvalues --    0.27986   0.28454   0.28677   0.28769   0.29159
  Beta virt. eigenvalues --    0.29231   0.29261   0.29358   0.29523   0.29702
  Beta virt. eigenvalues --    0.30078   0.30384   0.30700   0.31247   0.31506
  Beta virt. eigenvalues --    0.31795   0.32223   0.32306   0.32755   0.33114
  Beta virt. eigenvalues --    0.33555   0.34356   0.35106   0.36992   0.37044
  Beta virt. eigenvalues --    0.38199   0.38740   0.38969   0.39316   0.39479
  Beta virt. eigenvalues --    0.40229   0.41368   0.41752   0.41904   0.42011
  Beta virt. eigenvalues --    0.42193   0.42448   0.42693   0.43416   0.44041
  Beta virt. eigenvalues --    0.44205   0.44457   0.44857   0.45214   0.45423
  Beta virt. eigenvalues --    0.45578   0.45721   0.45868   0.46401   0.46650
  Beta virt. eigenvalues --    0.46863   0.47143   0.47692   0.47840   0.48111
  Beta virt. eigenvalues --    0.48215   0.48305   0.48682   0.48998   0.49032
  Beta virt. eigenvalues --    0.49474   0.49709   0.49843   0.49855   0.50027
  Beta virt. eigenvalues --    0.50094   0.50340   0.50533   0.50699   0.50755
  Beta virt. eigenvalues --    0.51199   0.51267   0.51611   0.51733   0.51981
  Beta virt. eigenvalues --    0.52460   0.52563   0.52839   0.52935   0.53257
  Beta virt. eigenvalues --    0.53760   0.53943   0.54181   0.54434   0.54552
  Beta virt. eigenvalues --    0.54692   0.55406   0.55989   0.56056   0.56448
  Beta virt. eigenvalues --    0.56527   0.56745   0.57049   0.57139   0.57624
  Beta virt. eigenvalues --    0.58016   0.58763   0.58924   0.59075   0.59490
  Beta virt. eigenvalues --    0.59918   0.60514   0.60709   0.61032   0.61591
  Beta virt. eigenvalues --    0.61897   0.62687   0.63519   0.64147   0.64560
  Beta virt. eigenvalues --    0.65031   0.65224   0.66407   0.66591   0.66641
  Beta virt. eigenvalues --    0.67531   0.68162   0.68263   0.68762   0.69028
  Beta virt. eigenvalues --    0.69548   0.70079   0.70517   0.71314   0.71682
  Beta virt. eigenvalues --    0.71817   0.72285   0.72563   0.72816   0.73138
  Beta virt. eigenvalues --    0.73176   0.73364   0.73509   0.73628   0.73704
  Beta virt. eigenvalues --    0.73919   0.74032   0.74815   0.75340   0.75588
  Beta virt. eigenvalues --    0.76020   0.76882   0.76918   0.77850   0.78083
  Beta virt. eigenvalues --    0.78874   0.79404   0.79979   0.80551   0.80660
  Beta virt. eigenvalues --    0.81030   0.81167   0.81855   0.81997   0.82230
  Beta virt. eigenvalues --    0.82977   0.83330   0.83818   0.83900   0.84303
  Beta virt. eigenvalues --    0.84507   0.84865   0.85333   0.86431   0.87047
  Beta virt. eigenvalues --    0.87626   0.88179   0.88327   0.89282   0.89537
  Beta virt. eigenvalues --    0.89712   0.90232   0.90355   0.90832   0.90948
  Beta virt. eigenvalues --    0.91529   0.91693   0.91865   0.92211   0.92370
  Beta virt. eigenvalues --    0.92461   0.93071   0.93139   0.93291   0.93581
  Beta virt. eigenvalues --    0.94721   0.94960   0.95496   0.95772   0.96672
  Beta virt. eigenvalues --    0.97162   0.97301   0.97824   0.98023   0.98484
  Beta virt. eigenvalues --    0.99203   0.99345   0.99623   0.99751   1.00059
  Beta virt. eigenvalues --    1.00403   1.00472   1.00656   1.00840   1.01044
  Beta virt. eigenvalues --    1.01223   1.01275   1.01730   1.02159   1.02324
  Beta virt. eigenvalues --    1.02472   1.02629   1.03359   1.03624   1.03766
  Beta virt. eigenvalues --    1.03904   1.04178   1.04711   1.04837   1.04964
  Beta virt. eigenvalues --    1.05222   1.05473   1.05600   1.05917   1.06693
  Beta virt. eigenvalues --    1.07045   1.07129   1.07426   1.07559   1.07705
  Beta virt. eigenvalues --    1.07927   1.07989   1.08398   1.08778   1.08845
  Beta virt. eigenvalues --    1.09043   1.09353   1.09481   1.10293   1.10883
  Beta virt. eigenvalues --    1.11099   1.11340   1.11865   1.12183   1.12336
  Beta virt. eigenvalues --    1.12464   1.12929   1.13096   1.13203   1.13311
  Beta virt. eigenvalues --    1.13470   1.13736   1.13831   1.14081   1.14442
  Beta virt. eigenvalues --    1.14503   1.14733   1.15270   1.15411   1.16045
  Beta virt. eigenvalues --    1.16329   1.16912   1.17532   1.17804   1.18461
  Beta virt. eigenvalues --    1.18945   1.19570   1.19906   1.19998   1.20336
  Beta virt. eigenvalues --    1.21003   1.22305   1.22703   1.22932   1.22941
  Beta virt. eigenvalues --    1.23138   1.23171   1.23629   1.23736   1.24483
  Beta virt. eigenvalues --    1.25440   1.25583   1.27016   1.27264   1.27543
  Beta virt. eigenvalues --    1.28078   1.28741   1.29382   1.29858   1.30183
  Beta virt. eigenvalues --    1.30453   1.30711   1.30815   1.30979   1.31569
  Beta virt. eigenvalues --    1.31718   1.31858   1.32080   1.32238   1.32366
  Beta virt. eigenvalues --    1.32523   1.32651   1.32967   1.33044   1.33955
  Beta virt. eigenvalues --    1.34464   1.34709   1.34871   1.35360   1.35393
  Beta virt. eigenvalues --    1.35562   1.35825   1.35994   1.36238   1.36461
  Beta virt. eigenvalues --    1.36682   1.36797   1.37715   1.37894   1.38049
  Beta virt. eigenvalues --    1.38129   1.38397   1.38670   1.38710   1.38911
  Beta virt. eigenvalues --    1.39003   1.39267   1.39437   1.39558   1.39614
  Beta virt. eigenvalues --    1.40067   1.40169   1.40434   1.40672   1.40943
  Beta virt. eigenvalues --    1.41085   1.41146   1.41315   1.41690   1.41808
  Beta virt. eigenvalues --    1.42114   1.42255   1.42492   1.42551   1.42697
  Beta virt. eigenvalues --    1.43066   1.43290   1.43578   1.43655   1.43984
  Beta virt. eigenvalues --    1.44343   1.44392   1.44567   1.45263   1.45290
  Beta virt. eigenvalues --    1.45556   1.45646   1.46029   1.46594   1.46893
  Beta virt. eigenvalues --    1.47721   1.48116   1.49510   1.49684   1.49788
  Beta virt. eigenvalues --    1.50233   1.50429   1.51843   1.52401   1.52449
  Beta virt. eigenvalues --    1.52517   1.52949   1.53300   1.53714   1.54965
  Beta virt. eigenvalues --    1.55254   1.57491   1.58002   1.58057   1.58195
  Beta virt. eigenvalues --    1.58447   1.58794   1.59035   1.59422   1.59995
  Beta virt. eigenvalues --    1.60532   1.60897   1.61207   1.61583   1.61861
  Beta virt. eigenvalues --    1.61911   1.62035   1.62580   1.63097   1.64012
  Beta virt. eigenvalues --    1.64663   1.64839   1.65001   1.65466   1.65578
  Beta virt. eigenvalues --    1.66022   1.66691   1.68085   1.68325   1.69747
  Beta virt. eigenvalues --    1.70389   1.70801   1.71273   1.72030   1.73119
  Beta virt. eigenvalues --    1.73262   1.73414   1.74015   1.74233   1.74798
  Beta virt. eigenvalues --    1.75580   1.76161   1.77394   1.77557   1.77648
  Beta virt. eigenvalues --    1.78037   1.78189   1.78859   1.78998   1.79386
  Beta virt. eigenvalues --    1.79649   1.80730   1.80922   1.81126   1.81448
  Beta virt. eigenvalues --    1.81866   1.82622   1.83545   1.83829   1.83977
  Beta virt. eigenvalues --    1.84376   1.84799   1.85001   1.85379   1.85767
  Beta virt. eigenvalues --    1.85959   1.86458   1.86683   1.87181   1.87549
  Beta virt. eigenvalues --    1.88033   1.88198   1.88507   1.88757   1.89116
  Beta virt. eigenvalues --    1.89391   1.90232   1.91268   1.92034   1.92686
  Beta virt. eigenvalues --    1.93120   1.93214   1.93768   1.93858   1.94696
  Beta virt. eigenvalues --    1.96044   1.96315   1.97650   1.97859   1.98266
  Beta virt. eigenvalues --    1.98488   2.01447   2.01895   2.02073   2.02257
  Beta virt. eigenvalues --    2.04497   2.04996   2.06928   2.07445   2.08307
  Beta virt. eigenvalues --    2.10596   2.10844   2.11328   2.11798   2.13004
  Beta virt. eigenvalues --    2.13510   2.14631   2.14865   2.15462   2.17533
  Beta virt. eigenvalues --    2.17949   2.18614   2.19047   2.19060   2.20200
  Beta virt. eigenvalues --    2.20716   2.20921   2.21725   2.24311   2.26166
  Beta virt. eigenvalues --    2.26461   2.26900   2.27509   2.29181   2.29793
  Beta virt. eigenvalues --    2.30197   2.30576   2.31133   2.32587   2.33008
  Beta virt. eigenvalues --    2.33382   2.34002   2.34141   2.34760   2.35605
  Beta virt. eigenvalues --    2.36152   2.38336   2.39315   2.41412   2.42594
  Beta virt. eigenvalues --    2.42965   2.47503   2.48958   2.53848   2.64698
  Beta virt. eigenvalues --    2.66456   2.67127   2.67140   2.67272   2.68181
  Beta virt. eigenvalues --    2.68308   2.69118   2.69185   2.69212   2.69568
  Beta virt. eigenvalues --    2.69598   2.69706   2.69794   2.69860   2.70065
  Beta virt. eigenvalues --    2.70076   2.70114   2.70370   2.70642   2.70738
  Beta virt. eigenvalues --    2.70778   2.70852   2.70878   2.71303   2.71548
  Beta virt. eigenvalues --    2.71676   2.72043   2.72720   2.72746   2.72926
  Beta virt. eigenvalues --    2.73165   2.73249   2.73452   2.73526   2.73632
  Beta virt. eigenvalues --    2.73757   2.74141   2.74204   2.74238   2.75283
  Beta virt. eigenvalues --    2.75427   2.75487   2.75589   2.75618   2.75666
  Beta virt. eigenvalues --    2.75818   2.75849   2.76044   2.76096   2.76159
  Beta virt. eigenvalues --    2.76252   2.76408   2.76527   2.76869   2.77364
  Beta virt. eigenvalues --    2.77449   2.77624   2.77981   2.78246   2.78521
  Beta virt. eigenvalues --    2.78687   2.79050   2.79407   2.79556   2.79576
  Beta virt. eigenvalues --    2.79713   2.79765   2.79961   2.80227   2.81122
  Beta virt. eigenvalues --    2.82138   2.82360   2.82509   2.82644   2.82766
  Beta virt. eigenvalues --    2.82955   2.83048   2.83416   2.83779   2.84668
  Beta virt. eigenvalues --    2.84713   2.85074   2.85198   2.85355   2.85726
  Beta virt. eigenvalues --    2.85913   2.86103   2.86484   2.87178   2.87392
  Beta virt. eigenvalues --    2.87668   2.88421   2.88657   2.88809   2.88839
  Beta virt. eigenvalues --    2.88931   2.89247   2.89276   2.89322   2.89909
  Beta virt. eigenvalues --    2.90871   2.91000   2.92006   2.92060   2.92137
  Beta virt. eigenvalues --    2.92589   2.92648   2.92688   2.93069   2.93134
  Beta virt. eigenvalues --    2.93662   2.93862   2.94378   2.94512   2.94588
  Beta virt. eigenvalues --    2.94766   2.94802   2.94994   2.95286   2.95687
  Beta virt. eigenvalues --    2.95909   2.96019   2.96120   2.96328   2.96359
  Beta virt. eigenvalues --    2.96551   2.96698   2.96826   2.97220   2.97413
  Beta virt. eigenvalues --    2.97549   2.98082   2.98231   2.98292   2.98763
  Beta virt. eigenvalues --    2.98989   2.99060   2.99462   2.99607   2.99748
  Beta virt. eigenvalues --    2.99904   3.00207   3.00446   3.00734   3.00825
  Beta virt. eigenvalues --    3.01361   3.01517   3.01964   3.02355   3.02474
  Beta virt. eigenvalues --    3.02648   3.02904   3.03374   3.04051   3.06903
  Beta virt. eigenvalues --    3.08494   3.08533   3.08554   3.08717   3.08997
  Beta virt. eigenvalues --    3.09908   3.10342   3.10399   3.11071   3.13729
  Beta virt. eigenvalues --    3.13811   3.13838   3.14612   3.14765   3.15085
  Beta virt. eigenvalues --    3.16414   3.16491   3.16806   3.22121   3.28307
  Beta virt. eigenvalues --    3.29981   3.30632   3.30786   3.42633   3.43089
  Beta virt. eigenvalues --    3.43534   3.44487   3.45324   3.46228   3.46378
  Beta virt. eigenvalues --    3.47367   3.47690   3.47859   3.48830   3.48963
  Beta virt. eigenvalues --    3.49409   3.52917   3.53708   3.54203   3.55313
  Beta virt. eigenvalues --    3.55564   3.56140   3.56586   3.57058   3.57247
  Beta virt. eigenvalues --    3.57390   3.57464   3.57703   3.58270   3.59391
  Beta virt. eigenvalues --    3.59556   3.60733   3.61319   3.61583   3.62076
  Beta virt. eigenvalues --    3.62643   3.63179   3.63544   3.63865   3.64370
  Beta virt. eigenvalues --    3.72952   3.77636  68.66901  68.67821  68.68934
  Beta virt. eigenvalues --   68.71071  68.74864  68.76084  68.83742  68.84646
  Beta virt. eigenvalues --   68.85155  68.88028  68.89158  68.90176 576.25373
  Beta virt. eigenvalues --  576.26268 576.27361 576.29447 576.33247 576.34462
  Beta virt. eigenvalues --  576.41968 576.42845 576.43346 576.46126 576.47219
  Beta virt. eigenvalues --  576.48237
          Condensed to atoms (all electrons):
          Atomic-Atomic Spin Densities.
 Mulliken charges and spin densities:
               1          2
     1  Cl  -0.351839  -0.606574
     2  C   -0.036183  -0.097313
     3  C    0.009990   0.059990
     4  C   -0.035333  -0.092974
     5  C   -0.032519   0.058931
     6  C    0.008722  -0.116165
     7  C   -0.046604   0.059504
     8  H    0.049132   0.004181
     9  H    0.051223   0.003978
    10  H    0.056558  -0.002087
    11  H    0.057758   0.005097
    12  H    0.054353  -0.002084
    13  C    0.004610  -0.264343
    14  C   -0.036777  -0.019867
    15  H    0.075239   0.010875
    16  H    0.095213   0.000962
    17  H    0.090743  -0.000771
    18  O   -0.669626  -0.000554
    19  O   -0.668022  -0.000504
    20  O   -0.665141  -0.001377
    21  O   -0.670371  -0.000530
    22  W    1.711776   0.000355
    23  W    1.654273   0.000489
    24  W    1.667622   0.000169
    25  W    1.677213   0.000217
    26  W    1.657388   0.002758
    27  W    1.705918   0.002483
    28  W    1.604481   0.003322
    29  W    1.665972   0.002872
    30  O   -0.350340  -0.000528
    31  O   -0.393873  -0.000566
    32  O   -0.394573  -0.000620
    33  O   -0.386230  -0.000562
    34  O   -0.669636  -0.000315
    35  O   -0.676552  -0.000050
    36  O   -0.667863  -0.000161
    37  O   -0.670167  -0.000234
    38  O   -0.396508   0.002071
    39  O   -0.396910   0.002117
    40  O   -0.341362   0.000573
    41  O   -0.395010   0.002103
    42  O   -0.675920   0.000075
    43  O   -0.670069   0.000175
    44  O   -0.666044   0.000292
    45  O   -0.672881   0.000117
    46  O   -0.397051   0.002314
    47  O   -0.352243   0.002187
    48  O   -0.393479   0.001843
    49  O   -0.394700   0.002361
    50  W    1.653849   0.002816
    51  W    1.658292   0.002722
    52  W    1.675085   0.003769
    53  W    1.664890   0.002663
    54  O   -0.719935   0.000090
    55  O   -0.703055  -0.000000
    56  O   -0.720265   0.000126
    57  O   -0.718882   0.000059
    58  O   -0.700695   0.000082
    59  O   -0.721262   0.000160
    60  O   -0.719829   0.000214
    61  O   -0.715543   0.000204
    62  O   -0.720785  -0.000175
    63  O   -0.703315  -0.000057
    64  O   -0.722529  -0.000187
    65  O   -0.722651  -0.000200
    66  O   -0.882975   0.005227
    67  O   -0.882873   0.007328
    68  O   -0.880456   0.007283
    69  O   -0.887533   0.006639
    70  K    0.852121   0.000196
    71  K    0.848987   0.000225
    72  K    0.848648   0.000224
    73  V    1.196354   0.936361
 Sum of Mulliken charges =  -1.00000  -0.00000
 Mulliken charges and spin densities with hydrogens summed into heavy atoms:
               1          2
     1  Cl  -0.351839  -0.606574
     2  C    0.012950  -0.093133
     3  C    0.009990   0.059990
     4  C    0.015890  -0.088996
     5  C    0.024039   0.056845
     6  C    0.066479  -0.111068
     7  C    0.007749   0.057420
    13  C    0.079849  -0.253467
    14  C    0.149179  -0.019676
    18  O   -0.669626  -0.000554
    19  O   -0.668022  -0.000504
    20  O   -0.665141  -0.001377
    21  O   -0.670371  -0.000530
    22  W    1.711776   0.000355
    23  W    1.654273   0.000489
    24  W    1.667622   0.000169
    25  W    1.677213   0.000217
    26  W    1.657388   0.002758
    27  W    1.705918   0.002483
    28  W    1.604481   0.003322
    29  W    1.665972   0.002872
    30  O   -0.350340  -0.000528
    31  O   -0.393873  -0.000566
    32  O   -0.394573  -0.000620
    33  O   -0.386230  -0.000562
    34  O   -0.669636  -0.000315
    35  O   -0.676552  -0.000050
    36  O   -0.667863  -0.000161
    37  O   -0.670167  -0.000234
    38  O   -0.396508   0.002071
    39  O   -0.396910   0.002117
    40  O   -0.341362   0.000573
    41  O   -0.395010   0.002103
    42  O   -0.675920   0.000075
    43  O   -0.670069   0.000175
    44  O   -0.666044   0.000292
    45  O   -0.672881   0.000117
    46  O   -0.397051   0.002314
    47  O   -0.352243   0.002187
    48  O   -0.393479   0.001843
    49  O   -0.394700   0.002361
    50  W    1.653849   0.002816
    51  W    1.658292   0.002722
    52  W    1.675085   0.003769
    53  W    1.664890   0.002663
    54  O   -0.719935   0.000090
    55  O   -0.703055  -0.000000
    56  O   -0.720265   0.000126
    57  O   -0.718882   0.000059
    58  O   -0.700695   0.000082
    59  O   -0.721262   0.000160
    60  O   -0.719829   0.000214
    61  O   -0.715543   0.000204
    62  O   -0.720785  -0.000175
    63  O   -0.703315  -0.000057
    64  O   -0.722529  -0.000187
    65  O   -0.722651  -0.000200
    66  O   -0.882975   0.005227
    67  O   -0.882873   0.007328
    68  O   -0.880456   0.007283
    69  O   -0.887533   0.006639
    70  K    0.852121   0.000196
    71  K    0.848987   0.000225
    72  K    0.848648   0.000224
    73  V    1.196354   0.936361
 Electronic spatial extent (au):  <R**2>=         316996.2091
 Charge=             -1.0000 electrons
 Dipole moment (field-independent basis, Debye):
    X=             27.8101    Y=            -13.8489    Z=            -30.9030  Tot=             43.8200
 Quadrupole moment (field-independent basis, Debye-Ang):
   XX=           -757.0912   YY=           -710.2367   ZZ=           -786.3464
   XY=            127.3936   XZ=            173.0883   YZ=            -94.8133
 Traceless Quadrupole moment (field-independent basis, Debye-Ang):
   XX=             -5.8664   YY=             40.9880   ZZ=            -35.1216
   XY=            127.3936   XZ=            173.0883   YZ=            -94.8133
 Octapole moment (field-independent basis, Debye-Ang**2):
  XXX=          10110.3076  YYY=            853.0289  ZZZ=         -17505.3800  XYY=           4128.6719
  XXY=           -599.2436  XXZ=          -6015.5286  XZZ=           4032.3653  YZZ=           -137.7294
  YYZ=          -7102.2438  XYZ=           1399.2045
 Hexadecapole moment (field-independent basis, Debye-Ang**3):
 XXXX=        -123959.1927 YYYY=         -41033.4132 ZZZZ=        -327128.9665 XXXY=           7728.6807
 XXXZ=          85769.4205 YYYX=           3247.2767 YYYZ=           7183.1697 ZZZX=          89972.2476
 ZZZY=           7816.9773 XXYY=         -36109.3108 XXZZ=         -69573.7969 YYZZ=         -79022.9967
 XXYZ=         -10357.0618 YYXZ=          40821.1407 ZZXY=          14372.9097
 N-N= 2.095295801054D+04 E-N=-5.901537429110D+04  KE= 6.765665509600D+03
                          Isotropic Fermi Contact Couplings
        Atom                 a.u.       MegaHertz       Gauss      10(-4) cm-1
     1  Cl(35)            -0.09755     -21.38705      -7.63143      -7.13395
     2  C(13)             -0.01536      -8.63520      -3.08125      -2.88039
     3  C(13)              0.01888      10.61112       3.78631       3.53949
     4  C(13)             -0.01473      -8.27967      -2.95439      -2.76180
     5  C(13)              0.01331       7.48303       2.67013       2.49607
     6  C(13)             -0.01880     -10.56870      -3.77118      -3.52534
     7  C(13)              0.01333       7.49508       2.67443       2.50009
     8  H(1)               0.00133       2.96804       1.05907       0.99003
     9  H(1)               0.00129       2.87351       1.02534       0.95850
    10  H(1)              -0.00062      -1.37727      -0.49144      -0.45941
    11  H(1)               0.00155       3.45776       1.23382       1.15339
    12  H(1)              -0.00061      -1.36962      -0.48871      -0.45686
    13  C(13)             -0.03706     -20.82971      -7.43256      -6.94804
    14  C(13)             -0.02419     -13.59733      -4.85187      -4.53558
    15  H(1)               0.00342       7.64756       2.72884       2.55095
    16  H(1)               0.00045       1.00054       0.35702       0.33375
    17  H(1)              -0.00066      -1.47607      -0.52670      -0.49236
    18  O(17)             -0.00044       0.13324       0.04754       0.04444
    19  O(17)             -0.00040       0.12116       0.04323       0.04041
    20  O(17)             -0.00135       0.40986       0.14625       0.13672
    21  O(17)             -0.00043       0.12960       0.04624       0.04323
    22  W(183)             0.00000       0.00000       0.00000       0.00000
    23  W(183)             0.00000       0.00000       0.00000       0.00000
    24  W(183)             0.00000       0.00000       0.00000       0.00000
    25  W(183)             0.00000       0.00000       0.00000       0.00000
    26  W(183)             0.00000       0.00000       0.00000       0.00000
    27  W(183)             0.00000       0.00000       0.00000       0.00000
    28  W(183)             0.00000       0.00000       0.00000       0.00000
    29  W(183)             0.00000       0.00000       0.00000       0.00000
    30  O(17)             -0.00020       0.05961       0.02127       0.01989
    31  O(17)             -0.00024       0.07172       0.02559       0.02392
    32  O(17)             -0.00026       0.07840       0.02798       0.02615
    33  O(17)             -0.00023       0.06856       0.02447       0.02287
    34  O(17)             -0.00005       0.01494       0.00533       0.00498
    35  O(17)              0.00014      -0.04230      -0.01509      -0.01411
    36  O(17)              0.00011      -0.03269      -0.01166      -0.01090
    37  O(17)              0.00004      -0.01078      -0.00384      -0.00359
    38  O(17)              0.00191      -0.57906      -0.20662      -0.19315
    39  O(17)              0.00190      -0.57479      -0.20510      -0.19173
    40  O(17)             -0.00383       1.15945       0.41372       0.38675
    41  O(17)              0.00188      -0.57081      -0.20368      -0.19040
    42  O(17)              0.00026      -0.07979      -0.02847      -0.02662
    43  O(17)              0.00033      -0.09946      -0.03549      -0.03318
    44  O(17)              0.00046      -0.13991      -0.04992      -0.04667
    45  O(17)              0.00030      -0.09022      -0.03219      -0.03009
    46  O(17)              0.00221      -0.67103      -0.23944      -0.22383
    47  O(17)              0.00197      -0.59702      -0.21303      -0.19914
    48  O(17)              0.00028      -0.08566      -0.03057      -0.02857
    49  O(17)              0.00222      -0.67230      -0.23989      -0.22426
    50  W(183)             0.00000       0.00000       0.00000       0.00000
    51  W(183)             0.00000       0.00000       0.00000       0.00000
    52  W(183)             0.00000       0.00000       0.00000       0.00000
    53  W(183)             0.00000       0.00000       0.00000       0.00000
    54  O(17)              0.00012      -0.03730      -0.01331      -0.01244
    55  O(17)              0.00000      -0.00141      -0.00050      -0.00047
    56  O(17)              0.00019      -0.05884      -0.02099      -0.01963
    57  O(17)              0.00004      -0.01233      -0.00440      -0.00411
    58  O(17)              0.00017      -0.05041      -0.01799      -0.01681
    59  O(17)              0.00029      -0.08824      -0.03149      -0.02943
    60  O(17)              0.00036      -0.10788      -0.03849      -0.03598
    61  O(17)              0.00035      -0.10572      -0.03772      -0.03526
    62  O(17)             -0.00026       0.07812       0.02787       0.02606
    63  O(17)             -0.00020       0.06061       0.02163       0.02022
    64  O(17)             -0.00028       0.08493       0.03030       0.02833
    65  O(17)             -0.00030       0.09068       0.03236       0.03025
    66  O(17)             -0.00809       2.45351       0.87547       0.81840
    67  O(17)             -0.00694       2.10233       0.75016       0.70126
    68  O(17)             -0.00702       2.12891       0.75965       0.71013
    69  O(17)             -0.00750       2.27228       0.81081       0.75795
    70  K(39)             -0.00002      -0.00196      -0.00070      -0.00065
    71  K(39)             -0.00002      -0.00191      -0.00068      -0.00064
    72  K(39)             -0.00002      -0.00234      -0.00083      -0.00078
    73  V(51)              0.07050      41.52047      14.81554      13.84974
 --------------------------------------------------------
       Center         ----  Spin Dipole Couplings  ----
                      3XX-RR        3YY-RR        3ZZ-RR
 --------------------------------------------------------
     1   Atom        1.227606     -2.545694      1.318088
     2   Atom       -0.019334     -0.010898      0.030233
     3   Atom        0.006911      0.002223     -0.009134
     4   Atom       -0.018037     -0.014932      0.032969
     5   Atom        0.012045      0.004849     -0.016894
     6   Atom       -0.024114     -0.011709      0.035823
     7   Atom        0.011942      0.003610     -0.015552
     8   Atom       -0.001539     -0.002398      0.003936
     9   Atom       -0.000357      0.000670     -0.000314
    10   Atom        0.001436      0.000673     -0.002109
    11   Atom        0.004454      0.000225     -0.004679
    12   Atom        0.000813     -0.000878      0.000065
    13   Atom       -0.104000      0.009988      0.094012
    14   Atom        0.007531     -0.046150      0.038619
    15   Atom       -0.003568      0.004544     -0.000975
    16   Atom        0.008583      0.000694     -0.009277
    17   Atom       -0.011777      0.002519      0.009258
    18   Atom        0.001356     -0.001329     -0.000026
    19   Atom        0.001892     -0.001806     -0.000086
    20   Atom       -0.001482     -0.000576      0.002058
    21   Atom       -0.000656      0.000685     -0.000029
    22   Atom       -0.001965      0.000635      0.001330
    23   Atom       -0.001797      0.000673      0.001124
    24   Atom       -0.002371      0.001063      0.001308
    25   Atom       -0.002052      0.000638      0.001414
    26   Atom        0.000291     -0.002249      0.001957
    27   Atom        0.000443     -0.002457      0.002014
    28   Atom        0.000808     -0.003069      0.002261
    29   Atom        0.000605     -0.002702      0.002097
    30   Atom       -0.000147      0.000333     -0.000186
    31   Atom        0.000028      0.000070     -0.000098
    32   Atom       -0.000450      0.000606     -0.000157
    33   Atom       -0.000129      0.000246     -0.000117
    34   Atom       -0.000047     -0.001936      0.001983
    35   Atom       -0.000349     -0.002614      0.002963
    36   Atom       -0.002234     -0.000475      0.002709
    37   Atom       -0.001893     -0.000604      0.002496
    38   Atom        0.005957     -0.002871     -0.003086
    39   Atom        0.006331     -0.003175     -0.003155
    40   Atom       -0.008711      0.008962     -0.000251
    41   Atom       -0.004528      0.007994     -0.003466
    42   Atom        0.002742     -0.001123     -0.001618
    43   Atom        0.003040     -0.001182     -0.001858
    44   Atom       -0.004463      0.005790     -0.001327
    45   Atom       -0.003399      0.004992     -0.001594
    46   Atom       -0.000592      0.000710     -0.000118
    47   Atom        0.001838     -0.002888      0.001050
    48   Atom        0.005572     -0.007797      0.002225
    49   Atom        0.005076     -0.004954     -0.000122
    50   Atom        0.006164     -0.002824     -0.003340
    51   Atom        0.006495     -0.003198     -0.003297
    52   Atom       -0.002265      0.005013     -0.002749
    53   Atom       -0.002106      0.005510     -0.003404
    54   Atom       -0.003118     -0.001693      0.004812
    55   Atom       -0.002910     -0.001889      0.004798
    56   Atom       -0.001146     -0.004365      0.005511
    57   Atom       -0.001184     -0.003766      0.004949
    58   Atom       -0.004002      0.006379     -0.002377
    59   Atom       -0.003904      0.006628     -0.002724
    60   Atom        0.002750     -0.000113     -0.002637
    61   Atom        0.002987     -0.000431     -0.002556
    62   Atom        0.000767      0.001034     -0.001801
    63   Atom        0.001060      0.000520     -0.001580
    64   Atom        0.005299     -0.003757     -0.001541
    65   Atom        0.004967     -0.003121     -0.001845
    66   Atom       -0.029294     -0.000380      0.029674
    67   Atom       -0.034251     -0.002940      0.037191
    68   Atom       -0.062334      0.021972      0.040362
    69   Atom       -0.057951      0.026434      0.031516
    70   Atom       -0.000584      0.000562      0.000021
    71   Atom        0.000464     -0.000553      0.000089
    72   Atom        0.000803     -0.001002      0.000199
    73   Atom       -1.002837      0.236239      0.766598
 --------------------------------------------------------
                        XY            XZ            YZ
 --------------------------------------------------------
     1   Atom        1.559327      0.514456     -1.429606
     2   Atom        0.061779      0.032683     -0.029898
     3   Atom       -0.018132     -0.008116      0.011484
     4   Atom        0.059692      0.028307     -0.027581
     5   Atom       -0.030168     -0.016924      0.015855
     6   Atom        0.075215      0.040207     -0.033474
     7   Atom       -0.030844     -0.015044      0.016844
     8   Atom       -0.002923     -0.001358      0.000277
     9   Atom       -0.002274     -0.004050     -0.003253
    10   Atom       -0.000412     -0.001588      0.000889
    11   Atom        0.002454      0.002164      0.006159
    12   Atom       -0.001314      0.000331      0.002514
    13   Atom        0.169910      0.107061     -0.076168
    14   Atom        0.068876      0.037937     -0.048201
    15   Atom       -0.004818     -0.011667     -0.014277
    16   Atom       -0.001175      0.009295      0.003314
    17   Atom       -0.001352     -0.008762     -0.001333
    18   Atom        0.000410     -0.001756      0.000253
    19   Atom        0.000359      0.002084     -0.000571
    20   Atom        0.002501      0.000156     -0.000180
    21   Atom       -0.001156      0.001358     -0.001380
    22   Atom        0.002248     -0.002008     -0.004086
    23   Atom        0.002217      0.002245      0.003892
    24   Atom        0.002345      0.001890      0.004182
    25   Atom        0.002033     -0.002027     -0.004097
    26   Atom       -0.002035     -0.004572      0.002451
    27   Atom       -0.001852      0.004715     -0.002758
    28   Atom       -0.001426     -0.004656      0.002587
    29   Atom       -0.001704      0.004763     -0.002277
    30   Atom        0.000393     -0.000177     -0.000589
    31   Atom        0.000450      0.000657      0.000288
    32   Atom        0.000481     -0.000118      0.000818
    33   Atom        0.000324     -0.000107     -0.000628
    34   Atom        0.000577     -0.003226     -0.000821
    35   Atom        0.000836      0.003972      0.001043
    36   Atom       -0.000312     -0.001700      0.003794
    37   Atom       -0.000600      0.001416     -0.003203
    38   Atom        0.004773      0.003604      0.001678
    39   Atom        0.004855     -0.003523     -0.001806
    40   Atom        0.005057      0.003152     -0.004416
    41   Atom       -0.002256     -0.000447      0.003579
    42   Atom        0.003894     -0.002639     -0.001908
    43   Atom        0.004170      0.002856      0.001847
    44   Atom        0.000292      0.000051      0.003989
    45   Atom       -0.000398      0.000048     -0.003575
    46   Atom       -0.004961     -0.004725      0.005099
[...]
                                 (Linear)    (Quad)   (Total)
    X1      -18.35917   0.00337   0.00000   0.00317   0.00101 -18.35815
    Y1       15.65346  -0.01230   0.00000  -0.01221  -0.01542  15.63804
    Z1       19.92023  -0.00341   0.00000  -0.00361  -0.00520  19.91503
    X2      -15.87921   0.00227   0.00000   0.00725   0.00635 -15.87286
    Y2        8.13224   0.00108   0.00000   0.01543   0.01294   8.14518
    Z2       23.04862   0.00257   0.00000   0.00690   0.00602  23.05464
    X3      -17.41953   0.00081   0.00000  -0.01580  -0.01666 -17.43619
    Y3        7.52611   0.00333   0.00000   0.03467   0.03172   7.55783
    Z3       20.96603  -0.00480   0.00000   0.01323   0.01245  20.97848
    X4      -19.11946  -0.00237   0.00000  -0.00313  -0.00367 -19.12313
    Y4        5.49582  -0.00259   0.00000   0.01229   0.00910   5.50492
    Z4       21.21847  -0.00063   0.00000  -0.01289  -0.01342  21.20506
    X5      -19.29365  -0.00125   0.00000   0.00246   0.00220 -19.29145
    Y5        4.14484   0.00008   0.00000   0.00185  -0.00114   4.14370
    Z5       23.46900  -0.00218   0.00000  -0.02296  -0.02334  23.44566
    X6      -17.75243   0.00016   0.00000   0.00123   0.00091 -17.75151
    Y6        4.77329   0.00051   0.00000   0.00490   0.00237   4.77566
    Z6       25.51486  -0.00131   0.00000  -0.02022  -0.02070  25.49416
    X7      -16.04215   0.00141   0.00000   0.00965   0.00902 -16.03313
    Y7        6.77092   0.00193   0.00000   0.00217  -0.00011   6.77081
    Z7       25.29062  -0.00060   0.00000  -0.00609  -0.00682  25.28379
    X8      -14.53942   0.00039   0.00000   0.01376   0.01261 -14.52681
    Y8        9.69606  -0.00043   0.00000   0.00828   0.00599   9.70204
    Z8       22.91949   0.00033   0.00000   0.01074   0.00966  22.92915
    X9      -20.33447   0.00045   0.00000   0.00329   0.00279 -20.33168
    Y9        4.99210   0.00006   0.00000   0.01273   0.00919   5.00129
    Z9       19.62392   0.00008   0.00000  -0.01613  -0.01658  19.60735
   X10      -20.64472   0.00064   0.00000   0.01218   0.01216 -20.63255
   Y10        2.59166   0.00005   0.00000  -0.00584  -0.00902   2.58264
   Z10       23.63316  -0.00055   0.00000  -0.02736  -0.02754  23.60561
   X11      -17.86438  -0.00038   0.00000  -0.00601  -0.00610 -17.87049
   Y11        3.69795   0.00035   0.00000   0.00456   0.00219   3.70014
   Z11       27.27255  -0.00016   0.00000  -0.02028  -0.02065  27.25190
   X12      -14.83337   0.00011   0.00000   0.01258   0.01192 -14.82145
   Y12        7.28474  -0.00045   0.00000  -0.01350  -0.01544   7.26930
   Z12       26.88411  -0.00040   0.00000  -0.00484  -0.00566  26.87845
   X13      -17.34520  -0.01299   0.00000  -0.05756  -0.05872 -17.40392
   Y13        8.96226  -0.01493   0.00000   0.07217   0.06899   9.03125
   Z13       18.60092   0.01158   0.00000   0.05322   0.05229  18.65321
   X14      -15.95743   0.00475   0.00000  -0.04980  -0.05129 -16.00872
   Y14       11.05958   0.02558   0.00000   0.10711   0.10410  11.16368
   Z14       18.17877   0.00020   0.00000   0.03921   0.03802  18.21679
   X15      -18.57633   0.00045   0.00000  -0.03190  -0.03298 -18.60931
   Y15        8.26108   0.00025   0.00000   0.05110   0.04757   8.30866
   Z15       17.09031   0.00036   0.00000   0.04142   0.04060  17.13091
   X16      -16.00007   0.00098   0.00000  -0.01325  -0.01493 -16.01500
   Y16       12.01378  -0.00205   0.00000   0.03844   0.03524  12.04902
   Z16       16.35324  -0.00189   0.00000   0.00144   0.00016  16.35340
   X17      -14.62728   0.00239   0.00000   0.01357   0.01200 -14.61528
   Y17       11.80168  -0.00139   0.00000   0.05701   0.05436  11.85603
   Z17       19.56698  -0.00027   0.00000   0.00515   0.00386  19.57084
   X18       -1.83865   0.00502   0.00000   0.02542   0.02610  -1.81255
   Y18       -3.45750  -0.00075   0.00000  -0.00116  -0.00239  -3.45988
   Z18       14.07800  -0.00127   0.00000  -0.01193  -0.01197  14.06603
   X19      -15.81922  -0.00498   0.00000  -0.02144  -0.02091 -15.84013
   Y19       -2.49142   0.00122   0.00000  -0.00578  -0.00920  -2.50061
   Z19       14.09450  -0.00148   0.00000  -0.01265  -0.01243  14.08207
   X20      -13.23608  -0.00396   0.00000  -0.01421  -0.01432 -13.25040
   Y20        2.50720   0.00433   0.00000   0.01628   0.01387   2.52107
   Z20       19.83215   0.00095   0.00000   0.00893   0.00856  19.84071
   X21       -4.38970   0.00363   0.00000   0.01573   0.01732  -4.37238
   Y21       -8.31552  -0.00355   0.00000  -0.02192  -0.02293  -8.33845
   Z21       19.94818   0.00145   0.00000   0.01300   0.01352  19.96170
   X22       -6.36579  -0.00269   0.00000   0.00933   0.00922  -6.35657
   Y22        1.35618  -0.01576   0.00000  -0.02538  -0.02750   1.32868
   Z22       12.31101   0.01442   0.00000   0.00871   0.00829  12.31930
   X23      -11.33677   0.00370   0.00000  -0.00809  -0.00686 -11.34362
   Y23       -7.27710   0.01542   0.00000   0.01088   0.00800  -7.26910
   Z23       12.43702   0.01514   0.00000   0.00898   0.00957  12.44660
   X24       -6.75266  -0.00998   0.00000  -0.02010  -0.02003  -6.77269
   Y24        1.66654  -0.01275   0.00000  -0.00296  -0.00419   1.66235
   Z24       21.52501  -0.01471   0.00000  -0.00919  -0.00964  21.51537
   X25      -10.90511   0.01074   0.00000   0.02291   0.02440 -10.88072
   Y25       -7.37295   0.01097   0.00000  -0.00422  -0.00608  -7.37903
   Z25       21.65659  -0.01533   0.00000  -0.01023  -0.00964  21.64695
   X26       -4.63396  -0.01219   0.00000   0.00527   0.00612  -4.62784
   Y26       -4.88901   0.01130   0.00000   0.01152   0.00964  -4.87936
   Z26       12.03188   0.01626   0.00000   0.01050   0.01067  12.04255
   X27      -13.02711   0.01224   0.00000   0.00128   0.00154 -13.02558
   Y27       -1.03565  -0.01208   0.00000  -0.02366  -0.02684  -1.06249
   Z27       11.98707   0.01612   0.00000   0.01253   0.01252  11.99959
   X28      -12.79618   0.01732   0.00000   0.01253   0.01295 -12.78322
   Y28       -0.51551  -0.00460   0.00000   0.00576   0.00364  -0.51187
   Z28       21.92002  -0.01632   0.00000  -0.01158  -0.01165  21.90837
   X29       -4.83558  -0.01636   0.00000  -0.01004  -0.00888  -4.84446
   Y29       -5.18806   0.00288   0.00000  -0.01376  -0.01464  -5.20271
   Z29       21.97504  -0.01620   0.00000  -0.00969  -0.00948  21.96556
   X30       -5.89738   0.00084   0.00000  -0.01358  -0.01411  -5.91149
   Y30        3.62283   0.00401   0.00000  -0.01372  -0.01599   3.60684
   Z30       10.11666  -0.00486   0.00000  -0.00156  -0.00223  10.11444
   X31      -11.61383  -0.00049   0.00000   0.01105   0.01260 -11.60124
   Y31       -9.63983  -0.00462   0.00000   0.00036  -0.00278  -9.64261
   Z31       10.28166  -0.00465   0.00000   0.00038   0.00123  10.28289
   X32       -5.00180   0.00346   0.00000  -0.00168  -0.00180  -5.00360
   Y32        3.26260   0.00306   0.00000  -0.01133  -0.01206   3.25053
   Z32       23.69277   0.00477   0.00000  -0.00003  -0.00068  23.69209
   X33      -12.62428  -0.00342   0.00000   0.00395   0.00573 -12.61855
   Y33       -8.91959  -0.00292   0.00000   0.00400   0.00210  -8.91749
   Z33       23.87995   0.00473   0.00000  -0.00212  -0.00132  23.87863
   X34       -5.02046   0.00175   0.00000   0.01671   0.01702  -5.00343
   Y34       -1.71137   0.00105   0.00000  -0.00069  -0.00277  -1.71414
   Z34       10.55827  -0.00484   0.00000  -0.01624  -0.01639  10.54188
   X35      -12.63504  -0.00212   0.00000  -0.01449  -0.01377 -12.64880
   Y35       -4.31397  -0.00013   0.00000  -0.00944  -0.01271  -4.32668
   Z35       10.62530  -0.00501   0.00000  -0.01679  -0.01647  10.60883
   X36       -9.94952  -0.00106   0.00000  -0.00777  -0.00755  -9.95707
   Y36        1.01408   0.00219   0.00000   0.01456   0.01303   1.02711
   Z36       23.36547   0.00493   0.00000   0.01374   0.01344  23.37892
   X37       -7.66421   0.00053   0.00000   0.00785   0.00928  -7.65493
   Y37       -6.71384  -0.00191   0.00000  -0.01909  -0.02026  -6.73409
   Z37       23.44665   0.00488   0.00000   0.01479   0.01523  23.46189
   X38        0.66620   0.00652   0.00000  -0.00445  -0.00420   0.66200
   Y38       -0.17685   0.00261   0.00000   0.00664   0.00615  -0.17070
   Z38       17.50925   0.00200   0.00000   0.00494   0.00449  17.51374
   X39      -18.32941  -0.00687   0.00000   0.00701   0.00812 -18.32129
   Y39       -5.65598  -0.00246   0.00000  -0.01271  -0.01615  -5.67212
   Z39       17.60915   0.00222   0.00000   0.00488   0.00549  17.61464
   X40      -12.06307  -0.00317   0.00000  -0.00395  -0.00476 -12.06783
   Y40        6.43782   0.00878   0.00000  -0.00575  -0.00834   6.42948
   Z40       16.41102  -0.00115   0.00000  -0.00503  -0.00583  16.40519
   X41       -5.60598   0.00183   0.00000  -0.00283  -0.00072  -5.60669
   Y41      -12.27162  -0.00709   0.00000  -0.00383  -0.00540 -12.27702
   Z41       16.52714  -0.00202   0.00000  -0.00469  -0.00373  16.52341
   X42       -3.30843   0.00301   0.00000   0.01754   0.01746  -3.29097
   Y42        1.37634   0.00409   0.00000   0.00620   0.00475   1.38109
   Z42       14.15231  -0.00196   0.00000  -0.01343  -0.01394  14.13837
   X43      -14.36481  -0.00369   0.00000  -0.01741  -0.01612 -14.38094
   Y43       -7.33166  -0.00375   0.00000  -0.01401  -0.01718  -7.34884
   Z43       14.27428  -0.00156   0.00000  -0.01243  -0.01175  14.26252
   X44       -8.46043   0.00058   0.00000  -0.00507  -0.00543  -8.46586
   Y44        4.14245   0.00532   0.00000   0.01868   0.01700   4.15945
   Z44       19.69699   0.00111   0.00000   0.00736   0.00670  19.70369
   X45       -9.18547  -0.00134   0.00000   0.00791   0.00975  -9.17572
   Y45       -9.91338  -0.00505   0.00000  -0.02478  -0.02655  -9.93993
   Z45       19.86672   0.00182   0.00000   0.01168   0.01250  19.87922
   X46       -3.07881   0.00390   0.00000   0.00278   0.00385  -3.07496
   Y46       -6.65248  -0.00437   0.00000  -0.00954  -0.01140  -6.66388
   Z46        9.84304  -0.00474   0.00000   0.00621   0.00653   9.84956
   X47      -14.67522  -0.00429   0.00000   0.00599   0.00594 -14.66928
   Y47        0.48407   0.00370   0.00000   0.00131  -0.00237   0.48170
   Z47        9.71787  -0.00489   0.00000   0.00631   0.00619   9.72406
   X48      -15.08593  -0.00626   0.00000  -0.00317  -0.00272 -15.08865
   Y48       -0.32312   0.00065   0.00000  -0.00924  -0.01150  -0.33462
   Z48       24.15953   0.00531   0.00000  -0.00595  -0.00597  24.15355
   X49       -2.51208   0.00582   0.00000   0.00521   0.00646  -2.50563
   Y49       -5.43260  -0.00071   0.00000   0.00142   0.00113  -5.43148
   Z49       24.17814   0.00479   0.00000  -0.00457  -0.00439  24.17375
   X50       -2.29508  -0.02149   0.00000  -0.00850  -0.00812  -2.30320
   Y50       -1.12135  -0.00701   0.00000  -0.00708  -0.00811  -1.12946
   Z50       16.69954  -0.00441   0.00000  -0.01585  -0.01612  16.68341
   X51      -15.36961   0.02209   0.00000   0.01201   0.01295 -15.35666
   Y51       -4.73138   0.00583   0.00000  -0.00195  -0.00501  -4.73640
   Z51       16.77178  -0.00495   0.00000  -0.01711  -0.01668  16.75510
   X52      -11.13436   0.00854   0.00000   0.00267   0.00235 -11.13201
   Y52        3.47235  -0.02328   0.00000  -0.01728  -0.01965   3.45270
   Z52       17.10924   0.00491   0.00000   0.01456   0.01404  17.12327
   X53       -6.53410  -0.00700   0.00000   0.00245   0.00412  -6.52998
   Y53       -9.29754   0.02158   0.00000   0.00681   0.00518  -9.29235
   Z53       17.30590   0.00422   0.00000   0.01607   0.01675  17.32264
   X54       -7.97651   0.00103   0.00000   0.00127   0.00226  -7.97424
   Y54       -5.90516  -0.00210   0.00000   0.01012   0.00767  -5.89749
   Z54       11.45949  -0.00317   0.00000   0.01060   0.01097  11.47046
   X55       -9.67915  -0.00117   0.00000   0.00324   0.00333  -9.67582
   Y55       -0.09974   0.00225   0.00000  -0.02377  -0.02649  -0.12623
   Z55       11.37239  -0.00301   0.00000   0.01040   0.01021  11.38261
   X56      -11.64005  -0.00245   0.00000   0.01548   0.01643 -11.62362
   Y56       -3.83004   0.00033   0.00000   0.00344   0.00156  -3.82848
   Z56       22.53357   0.00309   0.00000  -0.01168  -0.01143  22.52214
   X57       -5.95435   0.00221   0.00000  -0.01314  -0.01249  -5.96684
   Y57       -1.88004   0.00069   0.00000  -0.00944  -0.01044  -1.89048
   Z57       22.52922   0.00331   0.00000  -0.00920  -0.00930  22.51992
   X58       -8.19902  -0.00029   0.00000   0.00469   0.00438  -8.19464
   Y58        2.98811   0.00360   0.00000  -0.01883  -0.02097   2.96714
   Z58       14.83959  -0.00185   0.00000   0.00769   0.00714  14.84673
   X59       -9.44783  -0.00061   0.00000  -0.00331  -0.00176  -9.44960
   Y59       -8.89112  -0.00313   0.00000   0.01013   0.00781  -8.88331
   Z59       14.96784  -0.00218   0.00000   0.00984   0.01055  14.97839
   X60       -4.31751   0.00210   0.00000  -0.01611  -0.01600  -4.33351
   Y60        1.03631   0.00251   0.00000  -0.00495  -0.00606   1.03025
   Z60       19.03615   0.00241   0.00000  -0.00915  -0.00959  19.02656
   X61      -13.33029  -0.00240   0.00000   0.01897   0.02031 -13.30998
   Y61       -6.84672  -0.00209   0.00000  -0.00262  -0.00511  -6.85183
   Z61       19.14501   0.00212   0.00000  -0.01113  -0.01053  19.13447
   X62       -4.85060   0.00194   0.00000   0.00356   0.00488  -4.84573
   Y62       -7.40082  -0.00308   0.00000   0.00624   0.00462  -7.39620
   Z62       14.83561  -0.00114   0.00000   0.01288   0.01332  14.84892
   X63      -12.83846  -0.00162   0.00000   0.00192   0.00185 -12.83662
   Y63        1.47854   0.00376   0.00000  -0.01530  -0.01817   1.46036
   Z63       14.74196  -0.00064   0.00000   0.01332   0.01305  14.75502
   X64      -14.75162  -0.00354   0.00000   0.01054   0.01116 -14.74046
   Y64       -2.22643   0.00026   0.00000   0.00007  -0.00264  -2.22908
   Z64       19.19977   0.00142   0.00000  -0.01356  -0.01340  19.18638
   X65       -2.90637   0.00350   0.00000  -0.00694  -0.00611  -2.91248
   Y65       -3.58448   0.00038   0.00000  -0.00735  -0.00822  -3.59270
   Z65       19.17987   0.00109   0.00000  -0.01201  -0.01201  19.16786
   X66       -6.31670   0.04005   0.00000   0.07204   0.07255  -6.24415
   Y66       -2.20969   0.00726   0.00000   0.00470   0.00289  -2.20680
   Z66       15.14283  -0.02575   0.00000  -0.04101  -0.04107  15.10176
   X67      -11.34277  -0.04069   0.00000  -0.06711  -0.06636 -11.40912
   Y67       -3.72067  -0.00837   0.00000  -0.01836  -0.02097  -3.74163
   Z67       15.18714  -0.02537   0.00000  -0.04149  -0.04126  15.14588
   X68       -9.62502  -0.01681   0.00000  -0.03031  -0.02999  -9.65502
   Y68       -0.41775   0.03851   0.00000   0.05888   0.05693  -0.36082
   Z68       18.79792   0.02599   0.00000   0.04220   0.04204  18.83995
   X69       -7.99409   0.01675   0.00000   0.03392   0.03504  -7.95905
   Y69       -5.40029  -0.03693   0.00000  -0.06538  -0.06707  -5.46735
   Z69       18.85039   0.02610   0.00000   0.04171   0.04203  18.89242
   X70       -6.09701  -0.00035   0.00000   0.00022   0.00208  -6.09493
   Y70      -11.62682   0.00134   0.00000   0.00980   0.00756 -11.61926
   Z70       10.67379   0.00093   0.00000   0.01183   0.01274  10.68653
   X71       -0.22820  -0.00076   0.00000  -0.01286  -0.01247  -0.24067
   Y71       -0.06892  -0.00031   0.00000  -0.00563  -0.00566  -0.07458
   Z71       23.28829  -0.00053   0.00000  -0.00945  -0.00989  23.27840
   X72      -17.57431   0.00122   0.00000   0.01661   0.01782 -17.55649
   Y72       -5.33259   0.00021   0.00000  -0.00250  -0.00522  -5.33781
   Z72       23.41927  -0.00090   0.00000  -0.01232  -0.01177  23.40750
   X73       -8.82349   0.00059   0.00000   0.00281   0.00348  -8.82001
   Y73       -2.92909  -0.00038   0.00000  -0.00512  -0.00714  -2.93623
   Z73       16.98939  -0.00052   0.00000  -0.00043  -0.00034  16.98904
         Item               Value     Threshold  Converged?
 Maximum Force            0.040690     0.000450     NO 
 RMS     Force            0.009192     0.000300     NO 
 Maximum Displacement     0.104102     0.001800     NO 
 RMS     Displacement     0.020231     0.001200     NO 
 Predicted change in Energy=-1.296890D-02
 GradGradGradGradGradGradGradGradGradGradGradGradGradGradGradGradGradGrad

 Unable to Open any file for archive entry.
 1\1\GINC-X11P1N2\Force\UwB97XD\def2SVP\C8H8Cl1K3O40V1W12(1-)\MAYUMIAO\
 03-Jun-2024\0\\# def2svp wb97xd scrf=(smd,solvent=acetonitrile) g09def
 ault scf=(xqc,maxcycle=64) force guess=read nosymm\\Title Card\\-1,1\C
 l,-9.71525407,8.28345343,10.54133179\C,-8.40291352,4.30339491,12.19680
 584\C,-9.21801723,3.98264619,11.09474667\C,-10.11758226,2.90826433,11.
 22833192\C,-10.20975962,2.19335475,12.41925981\C,-9.39417878,2.5259166
 5,13.50188182\C,-8.48914026,3.58301627,13.38321937\H,-7.69392822,5.130
 9325,12.12846974\H,-10.76053984,2.64170565,10.38453344\H,-10.92471334,
 1.37144662,12.50612776\H,-9.45342329,1.95686849,14.43201166\H,-7.84948
 11,3.85491606,14.22645746\C,-9.17868709,4.7426251,9.84318061\C,-8.4443
 0703,5.85247648,9.61979104\H,-9.83016997,4.37157675,9.04380351\H,-8.46
 68738,6.3574196,8.65375997\H,-7.740424,6.24517762,10.35440213\O,-0.972
 96949,-1.82962826,7.44975432\O,-8.37116959,-1.31840178,7.45848804\O,-7
 .00423215,1.32675092,10.49472096\O,-2.32292806,-4.40038356,10.55612191
 \W,-3.3686333,0.71765814,6.51470594\W,-5.99915856,-3.85087479,6.581389
 87\W,-3.57335183,0.88189357,11.3905451\W,-5.77073673,-3.90159631,11.46
 017341\W,-2.45218621,-2.58715013,6.36699615\W,-6.8936512,-0.54804292,6
 .34328408\W,-6.77144498,-0.27279441,11.59957406\W,-2.55887703,-2.74540
 477,11.62868948\O,-3.12075926,1.91711848,5.3535074\O,-6.14577577,-5.10
 117825,5.44081914\O,-2.64683762,1.72649246,12.53767368\O,-6.68048356,-
 4.72004592,12.63672532\O,-2.65671289,-0.90561929,5.58719469\O,-6.68617
 295,-2.28285532,5.62266403\O,-5.26505817,0.53662782,12.36447534\O,-4.0
 5572784,-3.55280884,12.40743507\O,0.35253648,-0.09358574,9.26549521\O,
 -9.69950848,-2.99301349,9.31836116\O,-6.38350154,3.40674685,8.68433711
 \O,-2.96655625,-6.49386247,8.74578532\O,-1.75074803,0.72832755,7.48908
 134\O,-7.60153068,-3.87974632,7.55362144\O,-4.4770653,2.19209239,10.42
 319756\O,-4.8607413,-5.24593635,10.51301623\O,-1.62923828,-3.52034115,
 5.20871038\O,-7.76579325,0.25615697,5.14247471\O,-7.98312922,-0.170987
 79,12.7846712\O,-1.32933608,-2.87480935,12.79452252\W,-1.21450274,-0.5
 9339342,8.83701347\W,-8.1332489,-2.50374103,8.87524185\W,-5.89204916,1
 .83748664,9.05381865\W,-3.4576958,-4.92004365,9.15788568\O,-4.22098497
 ,-3.12487396,6.06410288\O,-5.12198691,-0.0527802,6.01801191\O,-6.15964
 726,-2.0267706,11.92425316\O,-3.15090599,-0.9948719,11.92195168\O,-4.3
 3873598,1.5812409,7.85277173\O,-4.99957807,-4.70497593,7.92063789\O,-2
 .28472684,0.54838975,10.07349906\O,-7.05408504,-3.62312796,10.13110116
 \O,-2.56682931,-3.91634439,7.85066445\O,-6.79382275,0.78240853,7.80111
 061\O,-7.80622133,-1.17817801,10.16008298\O,-1.53798437,-1.89682515,10
 .14954966\O,-3.34265628,-1.16931899,8.01323861\O,-6.00233384,-1.968892
 69,8.03669062\O,-5.09334381,-0.22106375,9.94742896\O,-4.23028831,-2.85
 770801,9.97519459\K,-3.22639937,-6.15264837,5.64832888\K,-0.12076071,-
 0.03647239,12.32363275\K,-9.29992612,-2.82188471,12.39294311\V,-4.6691
 9188,-1.55000911,8.99039695\\Version=ES64L-G16RevC.01\HF=-7327.7023115
 \S2=1.021644\S2-1=0.\S2A=0.173346\RMSD=4.645e-10\RMSF=9.192e-03\Dipole
 =1.1969623,-7.2448522,5.5335449\Quadrupole=-4.3615259,30.4735942,-26.1
 120683,94.7140032,128.6868945,-70.4913407\PG=C01 [X(C8H8Cl1K3O40V1W12)
 ]\\@
 The archive entry for this job was punched.


 In the race for quality, there is no finish line.
                               -- David T. Kearns
 Job cpu time:       0 days 22 hours 23 minutes  2.7 seconds.
 Elapsed time:       0 days  0 hours 25 minutes 35.3 seconds.
 File lengths (MBytes):  RWF=   1869 Int=      0 D2E=      0 Chk=    306 Scr=      1
 Normal termination of Gaussian 16 at Mon Jun  3 08:39:09 2024.
