 Entering Gaussian System, Link 0=g16
 Input=JOBS/76_A.gjf
 Output=JOBS/76_A.log
 Initial command:
 /data/app/gaussian/C01-avx2//g16/l1.exe "/tmp/Gau-727203.inp" -scrdir="/tmp/"
 Entering Link 1 = /data/app/gaussian/C01-avx2//g16/l1.exe PID=    727204.
  
 Copyright (c) 1988-2019, Gaussian, Inc.  All Rights Reserved.
  
 This is part of the Gaussian(R) 16 program.  It is based on
 the Gaussian(R) 09 system (copyright 2009, Gaussian, Inc.),
 the Gaussian(R) 03 system (copyright 2003, Gaussian, Inc.),
 the Gaussian(R) 98 system (copyright 1998, Gaussian, Inc.),
 the Gaussian(R) 94 system (copyright 1995, Gaussian, Inc.),
 the Gaussian 92(TM) system (copyright 1992, Gaussian, Inc.),
 the Gaussian 90(TM) system (copyright 1990, Gaussian, Inc.),
 the Gaussian 88(TM) system (copyright 1988, Gaussian, Inc.),
 the Gaussian 86(TM) system (copyright 1986, Carnegie Mellon
 University), and the Gaussian 82(TM) system (copyright 1983,
 Carnegie Mellon University). Gaussian is a federally registered
 trademark of Gaussian, Inc.
  
 This software contains proprietary and confidential information,
 including trade secrets, belonging to Gaussian, Inc.
  
 This software is provided under written license and may be
 used, copied, transmitted, or stored only in accord with that
 written license.
  
 The following legend is applicable only to US Government
 contracts under FAR:
  
                    RESTRICTED RIGHTS LEGEND
  
 Use, reproduction and disclosure by the US Government is
 subject to restrictions as set forth in subparagraphs (a)
 and (c) of the Commercial Computer Software - Restricted
 Rights clause in FAR 52.227-19.
  
 Gaussian, Inc.
 340 Quinnipiac St., Bldg. 40, Wallingford CT 06492
  
  
 ---------------------------------------------------------------
 Warning -- This program may not be used in any manner that
 competes with the business of Gaussian, Inc. or will provide
 assistance to any competitor of Gaussian, Inc.  The licensee
 of this program is prohibited from giving any competitor of
 Gaussian, Inc. access to this program.  By using this program,
 the user acknowledges that Gaussian, Inc. is engaged in the
 business of creating and licensing software in the field of
 computational chemistry and represents and warrants to the
 licensee that it is not a competitor of Gaussian, Inc. and that
 it will not use this program in any manner prohibited above.
 ---------------------------------------------------------------
  

 Cite this work as:
 Gaussian 16, Revision C.01,
 M. J. Frisch, G. W. Trucks, H. B. Schlegel, G. E. Scuseria, 
 M. A. Robb, J. R. Cheeseman, G. Scalmani, V. Barone, 
 G. A. Petersson, H. Nakatsuji, X. Li, M. Caricato, A. V. Marenich, 
 J. Bloino, B. G. Janesko, R. Gomperts, B. Mennucci, H. P. Hratchian, 
 J. V. Ortiz, A. F. Izmaylov, J. L. Sonnenberg, D. Williams-Young, 
 F. Ding, F. Lipparini, F. Egidi, J. Goings, B. Peng, A. Petrone, 
 T. Henderson, D. Ranasinghe, V. G. Zakrzewski, J. Gao, N. Rega, 
 G. Zheng, W. Liang, M. Hada, M. Ehara, K. Toyota, R. Fukuda, 
 J. Hasegawa, M. Ishida, T. Nakajima, Y. Honda, O. Kitao, H. Nakai, 
 T. Vreven, K. Throssell, J. A. Montgomery, Jr., J. E. Peralta, 
 F. Ogliaro, M. J. Bearpark, J. J. Heyd, E. N. Brothers, K. N. Kudin, 
 V. N. Staroverov, T. A. Keith, R. Kobayashi, J. Normand, 
 K. Raghavachari, A. P. Rendell, J. C. Burant, S. S. Iyengar, 
 J. Tomasi, M. Cossi, J. M. Millam, M. Klene, C. Adamo, R. Cammi, 
 J. W. Ochterski, R. L. Martin, K. Morokuma, O. Farkas, 
 J. B. Foresman, and D. J. Fox, Gaussian, Inc., Wallingford CT, 2019.
 
 ******************************************
 Gaussian 16:  ES64L-G16RevC.01  3-Jul-2019
                 3-Jun-2024 
 ******************************************
 %chk=a.chk
 %nprocshared=56
 Will use up to   56 processors via shared memory.
 %mem=96gb
 ----------------------------------------------------------------------
 # def2svp wb97xd scrf=(smd,solvent=acetonitrile) g09default scf=(xqc,m
 axcycle=64) force guess=read nosymm
 ----------------------------------------------------------------------
 1/10=7,30=1,38=1,158=3,167=1/1,3;
 2/12=2,15=1,17=6,18=5,40=1/2;
 3/5=43,7=101,11=2,25=1,27=10,30=1,70=32201,71=1,72=2,74=-58,75=-4,116=-2,158=3/1,2,3;
 4/5=1,60=-1/1;
 5/5=2,7=64,8=3,13=1,38=6,53=2,87=10/2,8;
 6/7=2,8=2,9=2,10=2,28=1,87=10/1;
 7/29=1,30=1,87=10/1,2,3,16;
 1/10=7,30=1,158=3,167=1/3;
 99//99;
 Using 2006 physical constants.
 ----------
 Title Card
 ----------
 Symbolic Z-matrix:
 Charge = -1 Multiplicity = 1
 17                   -9.72022   8.2845    10.54219 
 6                    -8.40529   4.30572   12.19666 
 6                    -9.22213   3.98609   11.09564 
 6                    -10.12034   2.9105    11.22904 
 6                    -10.20971   2.19366   12.41917 
 6                    -9.39316   2.52592   13.50108 
 6                    -8.48889   3.58362   13.38228 
 1                    -7.69664   5.13348   12.12781 
 1                    -10.76383   2.64369   10.38579 
 1                    -10.92273   1.37004   12.50566 
 1                    -9.45091   1.95598   14.43078 
 1                    -7.84726   3.85412   14.22445 
 6                    -9.1836    4.74685   9.84442 
 6                    -8.44483   5.85325   9.61859 
 1                    -9.83904   4.37919   9.04676 
 1                    -8.46626   6.35643   8.65156 
 1                    -7.73801   6.24417   10.35138 
 8                    -0.97261  -1.83039   7.44919 
 8                    -8.37094  -1.31796   7.45815 
 8                    -7.00385   1.32604   10.4955 
 8                    -2.32221  -4.40107   10.55628 
 74                   -3.36777   0.7179    6.51558 
 74                   -5.99967  -3.85119   6.58257 
 74                   -3.57225   0.88176   11.39021 
 74                   -5.77056  -3.90273   11.45888 
 74                   -2.45274  -2.58733   6.36602 
 74                   -6.89257  -0.54813   6.34299 
 74                   -6.77011  -0.27356   11.60065 
 74                   -2.55901  -2.74573   11.62927 
 8                    -3.11937   1.91738   5.3548 
 8                    -6.14683  -5.10182   5.44222 
 8                    -2.64552   1.72688   12.53666 
 8                    -6.68031  -4.72169   12.63503 
 8                    -2.65607  -0.90538   5.58723 
 8                    -6.68575  -2.28297   5.62296 
 8                    -5.26406   0.53636   12.36499 
 8                    -4.05559  -3.55384   12.40716 
 8                     0.35348  -0.0963    9.2652 
 8                    -9.70002  -2.99071   9.31886 
 8                    -6.38459   3.40598   8.68553 
 8                    -2.9645   -6.49379   8.74534 
 8                    -1.74999   0.72781   7.48988 
 8                    -7.60202  -3.87946   7.55409 
 8                    -4.47677   2.19173   10.42338 
 8                    -4.86011  -5.24663   10.51211 
 8                    -1.63039  -3.52061   5.20729 
 8                    -7.76424   0.25633   5.14179 
 8                    -7.98161  -0.17241   12.78599 
 8                    -1.32927  -2.87549   12.79492 
 74                   -1.21371  -0.59513   8.83679 
 74                   -8.13344  -2.5024    8.87536 
 74                   -5.89232   1.83702   9.0545 
 74                   -3.45608  -4.92002   9.15772 
 8                    -4.22115  -3.1248    6.06406 
 8                    -5.12106  -0.05291   6.01822 
 8                    -6.15863  -2.0275    11.92377 
 8                    -3.15034  -0.99525   11.92276 
 8                    -4.33847   1.58106   7.85331 
 8                    -4.99901  -4.7047    7.92088 
 8                    -2.28422   0.5473    10.0735 
 8                    -7.05404  -3.6231    10.13055 
 8                    -2.56607  -3.91637   7.8503 
 8                    -6.79335   0.78191   7.80141 
 8                    -7.80565  -1.17783   10.16032 
 8                    -1.5383   -1.89796   10.14947 
 8                    -3.3424   -1.1698    8.01306 
 8                    -6.00211  -1.96886   8.03703 
 8                    -5.09267  -0.22156   9.94787 
 8                    -4.22962  -2.8581    9.97516 
 19                   -3.22683  -6.15344   5.64828 
 19                   -0.11889  -0.03941   12.32534 
 19                   -9.30097  -2.82236   12.39168 
 23                   -4.66877  -1.55038   8.99052 
 

 GradGradGradGradGradGradGradGradGradGradGradGradGradGradGradGradGradGrad
 Berny optimization.
 Initialization pass.
 Trust Radius=3.00D-01 FncErr=1.00D-07 GrdErr=1.00D-07 EigMax=2.50D+02 EigMin=1.00D-04
 Number of steps in this run=      2 maximum allowed number of steps=      2.
 GradGradGradGradGradGradGradGradGradGradGradGradGradGradGradGradGradGrad

 Symmetry turned off by external request.
 Stoichiometry    C8H8ClK3O40VW12(1-)
 Framework group  C1[X(C8H8ClK3O40VW12)]
 Deg. of freedom   213
 Full point group                 C1      NOp   1
                          Input orientation:                          
 ---------------------------------------------------------------------
 Center     Atomic      Atomic             Coordinates (Angstroms)
 Number     Number       Type             X           Y           Z
 ---------------------------------------------------------------------
      1         17           0       -9.720219    8.284500   10.542190
      2          6           0       -8.405294    4.305720   12.196663
      3          6           0       -9.222132    3.986087   11.095642
      4          6           0      -10.120339    2.910499   11.229045
      5          6           0      -10.209711    2.193658   12.419170
      6          6           0       -9.393163    2.525920   13.501081
      7          6           0       -8.488887    3.583622   13.382277
      8          1           0       -7.696636    5.133480   12.127813
      9          1           0      -10.763833    2.643687   10.385794
     10          1           0      -10.922728    1.370043   12.505661
     11          1           0       -9.450915    1.955976   14.430784
     12          1           0       -7.847262    3.854119   14.224454
     13          6           0       -9.183603    4.746849    9.844424
     14          6           0       -8.444831    5.853253    9.618588
     15          1           0       -9.839043    4.379186    9.046761
     16          1           0       -8.466264    6.356427    8.651557
     17          1           0       -7.738013    6.244174   10.351380
     18          8           0       -0.972606   -1.830391    7.449192
     19          8           0       -8.370936   -1.317960    7.458151
     20          8           0       -7.003846    1.326042   10.495499
     21          8           0       -2.322206   -4.401067   10.556276
     22         74           0       -3.367767    0.717903    6.515584
     23         74           0       -5.999666   -3.851189    6.582569
     24         74           0       -3.572246    0.881763   11.390209
     25         74           0       -5.770561   -3.902735   11.458884
     26         74           0       -2.452745   -2.587327    6.366025
     27         74           0       -6.892572   -0.548131    6.342994
     28         74           0       -6.770106   -0.273558   11.600648
     29         74           0       -2.559011   -2.745733   11.629274
     30          8           0       -3.119370    1.917381    5.354796
     31          8           0       -6.146832   -5.101823    5.442219
     32          8           0       -2.645522    1.726878   12.536662
     33          8           0       -6.680313   -4.721690   12.635031
     34          8           0       -2.656072   -0.905379    5.587231
     35          8           0       -6.685752   -2.282972    5.622955
     36          8           0       -5.264059    0.536359   12.364992
     37          8           0       -4.055591   -3.553843   12.407157
     38          8           0        0.353476   -0.096298    9.265200
     39          8           0       -9.700020   -2.990712    9.318859
     40          8           0       -6.384593    3.405979    8.685532
     41          8           0       -2.964499   -6.493788    8.745337
     42          8           0       -1.749986    0.727814    7.489879
     43          8           0       -7.602016   -3.879462    7.554094
     44          8           0       -4.476773    2.191726   10.423382
     45          8           0       -4.860113   -5.246633   10.512113
     46          8           0       -1.630395   -3.520607    5.207287
     47          8           0       -7.764239    0.256328    5.141795
     48          8           0       -7.981608   -0.172409   12.785987
     49          8           0       -1.329270   -2.875493   12.794918
     50         74           0       -1.213709   -0.595135    8.836787
     51         74           0       -8.133440   -2.502397    8.875359
     52         74           0       -5.892323    1.837020    9.054495
     53         74           0       -3.456077   -4.920016    9.157724
     54          8           0       -4.221149   -3.124805    6.064057
     55          8           0       -5.121061   -0.052912    6.018223
     56          8           0       -6.158628   -2.027496   11.923770
     57          8           0       -3.150344   -0.995255   11.922764
     58          8           0       -4.338465    1.581058    7.853307
     59          8           0       -4.999013   -4.704696    7.920875
     60          8           0       -2.284219    0.547303   10.073497
     61          8           0       -7.054039   -3.623102   10.130547
     62          8           0       -2.566066   -3.916365    7.850297
     63          8           0       -6.793345    0.781910    7.801414
     64          8           0       -7.805651   -1.177830   10.160322
     65          8           0       -1.538296   -1.897964   10.149468
     66          8           0       -3.342401   -1.169795    8.013059
     67          8           0       -6.002114   -1.968858    8.037033
     68          8           0       -5.092670   -0.221564    9.947874
     69          8           0       -4.229615   -2.858097    9.975164
     70         19           0       -3.226834   -6.153437    5.648280
     71         19           0       -0.118891   -0.039409   12.325344
     72         19           0       -9.300968   -2.822361   12.391683
     73         23           0       -4.668773   -1.550384    8.990519
 ---------------------------------------------------------------------
 Rotational constants (GHZ):           0.0171963           0.0131663           0.0129466
 Standard basis: def2SVP (5D, 7F)
  1217 basis functions,  2313 primitive gaussians,  1337 cartesian basis functions
   321 alpha electrons      321 beta electrons
       nuclear repulsion energy     20952.1640162299 Hartrees.
 NAtoms=   73 NActive=   73 NUniq=   73 SFac= 1.00D+00 NAtFMM=   60 NAOKFM=T Big=T
 Integral buffers will be    131072 words long.
 Raffenetti 2 integral format.
 Two-electron integral symmetry is turned off.
 Nuclear repulsion after empirical dispersion term =    20951.8880618426 Hartrees.
 Force PCM accuracy= 1.00D-10.
 ------------------------------------------------------------------------------
 Polarizable Continuum Model (PCM)
 =================================
 Model                : PCM (using non-symmetric T matrix).
 Atomic radii         : SMD-Coulomb.
 Polarization charges : Total charges.
 Charge compensation  : None.
 Solution method      : On-the-fly selection.
 Cavity type          : VdW (van der Waals Surface) (Alpha=1.000).
 Cavity algorithm     : GePol (No added spheres)
                        Default sphere list used, NSphG=   73.
                        Lebedev-Laikov grids with approx.  5.0 points / Ang**2.
                        Smoothing algorithm: York/Karplus (Gamma=1.0000).
                        Polarization charges: spherical gaussians, with
                                              point-specific exponents (IZeta= 3).
                        Self-potential: point-specific (ISelfS= 7).
                        Self-field    : sphere-specific E.n sum rule (ISelfD= 2).
 1st derivatives      : Analytical E(r).r(x)/FMM algorithm (CHGder, D1EAlg=3).
                        Cavity 1st derivative terms included.
 Solvent              : Acetonitrile, Eps=  35.688000 Eps(inf)=   1.806874
 ------------------------------------------------------------------------------
 ------------------------------------------------------------------------------
 Atomic radii for non-electrostatic terms: SMD-CDS.
 ------------------------------------------------------------------------------
 Nuclear repulsion after PCM non-electrostatic terms =    20951.8822598547 Hartrees.
 One-electron integrals computed using PRISM.
   1 Symmetry operations used in ECPInt.
 ECPInt:  NShTT=  127765 NPrTT=  468030 LenC2=   96364 LenP2D=  220487.
 LDataN:  DoStor=T MaxTD1= 8 Len=  415
 NBasis=  1217 RedAO= T EigKep=  1.38D-04  NBF=  1217
 NBsUse=  1217 1.00D-06 EigRej= -1.00D+00 NBFU=  1217
 Defaulting to unpruned grid for atomic number  74.
 Defaulting to unpruned grid for atomic number  74.
 Defaulting to unpruned grid for atomic number  74.
 Defaulting to unpruned grid for atomic number  74.
 Defaulting to unpruned grid for atomic number  74.
 Defaulting to unpruned grid for atomic number  74.
 Defaulting to unpruned grid for atomic number  74.
 Defaulting to unpruned grid for atomic number  74.
 Initial guess from the checkpoint file:  "a.chk"
 B after Tr=     0.000426    0.000468    0.000264
         Rot=    1.000000   -0.000038   -0.000006    0.000020 Ang=  -0.00 deg.
 Requested convergence on RMS density matrix=1.00D-08 within  64 cycles.
 Requested convergence on MAX density matrix=1.00D-06.
 Requested convergence on             energy=1.00D-06.
 No special actions if energy rises.
 Defaulting to unpruned grid for atomic number  74.
 Defaulting to unpruned grid for atomic number  74.
 Defaulting to unpruned grid for atomic number  74.
 Defaulting to unpruned grid for atomic number  74.
 Defaulting to unpruned grid for atomic number  74.
 Defaulting to unpruned grid for atomic number  74.
 Defaulting to unpruned grid for atomic number  74.
 Defaulting to unpruned grid for atomic number  74.
 Defaulting to unpruned grid for atomic number  74.
 Defaulting to unpruned grid for atomic number  74.
 Defaulting to unpruned grid for atomic number  74.
 Defaulting to unpruned grid for atomic number  74.
 Defaulting to unpruned grid for atomic number  74.
 Defaulting to unpruned grid for atomic number  74.
 Defaulting to unpruned grid for atomic number  74.
 Defaulting to unpruned grid for atomic number  74.
 Defaulting to unpruned grid for atomic number  74.
 Defaulting to unpruned grid for atomic number  74.
 Defaulting to unpruned grid for atomic number  74.
 Defaulting to unpruned grid for atomic number  74.
 Defaulting to unpruned grid for atomic number  74.
 Defaulting to unpruned grid for atomic number  74.
 Defaulting to unpruned grid for atomic number  74.
 Defaulting to unpruned grid for atomic number  74.
 Defaulting to unpruned grid for atomic number  74.
 Defaulting to unpruned grid for atomic number  74.
 Defaulting to unpruned grid for atomic number  74.
 Defaulting to unpruned grid for atomic number  74.
 Defaulting to unpruned grid for atomic number  74.
 Defaulting to unpruned grid for atomic number  74.
 Defaulting to unpruned grid for atomic number  74.
 Defaulting to unpruned grid for atomic number  74.
 Defaulting to unpruned grid for atomic number  74.
 Defaulting to unpruned grid for atomic number  74.
 Defaulting to unpruned grid for atomic number  74.
 Defaulting to unpruned grid for atomic number  74.
 Defaulting to unpruned grid for atomic number  74.
 Defaulting to unpruned grid for atomic number  74.
 Defaulting to unpruned grid for atomic number  74.
 Defaulting to unpruned grid for atomic number  74.
 Defaulting to unpruned grid for atomic number  74.
 Defaulting to unpruned grid for atomic number  74.
 Defaulting to unpruned grid for atomic number  74.
 Defaulting to unpruned grid for atomic number  74.
 Defaulting to unpruned grid for atomic number  74.
 Defaulting to unpruned grid for atomic number  74.
 Defaulting to unpruned grid for atomic number  74.
 Defaulting to unpruned grid for atomic number  74.
 Defaulting to unpruned grid for atomic number  74.
 Defaulting to unpruned grid for atomic number  74.
 Defaulting to unpruned grid for atomic number  74.
 Defaulting to unpruned grid for atomic number  74.
 Defaulting to unpruned grid for atomic number  74.
 Defaulting to unpruned grid for atomic number  74.
 Defaulting to unpruned grid for atomic number  74.
 Defaulting to unpruned grid for atomic number  74.
 Inv3:  Mode=1 IEnd=    87869232.
 Iteration    1 A*A^-1 deviation from unit magnitude is 4.00D-15 for   1914.
 Iteration    1 A*A^-1 deviation from orthogonality  is 3.73D-15 for   3606   3467.
 Iteration    1 A^-1*A deviation from unit magnitude is 3.55D-15 for   2404.
 Iteration    1 A^-1*A deviation from orthogonality  is 2.11D-11 for   4051   4027.
 Error on total polarization charges =  0.01623
 SCF Done:  E(RwB97XD) =  -7327.70234307     A.U. after   12 cycles
            NFock= 12  Conv=0.20D-08     -V/T= 2.0832
 SMD-CDS (non-electrostatic) energy       (kcal/mol) =      -3.64
 (included in total energy above)
 QCSCF skips out because SCF is already converged.

 **********************************************************************

            Population analysis using the SCF Density.

 **********************************************************************

 Alpha  occ. eigenvalues -- -197.29325-130.00132-130.00046-130.00028-101.48272
 Alpha  occ. eigenvalues --  -22.62464 -19.33621 -19.33610 -19.33609 -19.33584
 Alpha  occ. eigenvalues --  -19.30725 -19.30687 -19.30684 -19.30678 -19.30663
 Alpha  occ. eigenvalues --  -19.30657 -19.30645 -19.30633 -19.30583 -19.30366
 Alpha  occ. eigenvalues --  -19.30335 -19.30179 -19.29384 -19.29368 -19.29360
 Alpha  occ. eigenvalues --  -19.29351 -19.29340 -19.29319 -19.29311 -19.29284
 Alpha  occ. eigenvalues --  -19.29243 -19.29235 -19.29217 -19.29211 -19.29198
 Alpha  occ. eigenvalues --  -19.29161 -19.29133 -19.29122 -19.29121 -19.29119
 Alpha  occ. eigenvalues --  -19.29110 -19.29092 -19.29046 -19.29006 -19.28977
 Alpha  occ. eigenvalues --  -19.28906 -19.11419 -19.11410 -19.11401 -13.37534
 Alpha  occ. eigenvalues --  -13.37439 -13.37425 -10.70463 -10.70456 -10.70456
 Alpha  occ. eigenvalues --  -10.70370 -10.70363 -10.70358 -10.70356 -10.70349
 Alpha  occ. eigenvalues --  -10.70348 -10.29897 -10.29328 -10.29315 -10.29055
 Alpha  occ. eigenvalues --  -10.29012 -10.28925 -10.28249 -10.27493  -9.38741
 Alpha  occ. eigenvalues --   -7.13571  -7.13515  -7.13512  -3.23291  -3.23278
 Alpha  occ. eigenvalues --   -3.23276  -3.23275  -3.23255  -3.23230  -3.23228
 Alpha  occ. eigenvalues --   -3.23223  -3.23210  -3.22942  -3.22930  -3.22761
 Alpha  occ. eigenvalues --   -2.91746  -1.94136  -1.94106  -1.94096  -1.87702
 Alpha  occ. eigenvalues --   -1.87646  -1.87638  -1.87605  -1.87476  -1.87457
 Alpha  occ. eigenvalues --   -1.87446  -1.87437  -1.87414  -1.87259  -1.87229
 Alpha  occ. eigenvalues --   -1.87090  -1.86620  -1.86499  -1.86489  -1.86476
 Alpha  occ. eigenvalues --   -1.86442  -1.86421  -1.86333  -1.86303  -1.86294
 Alpha  occ. eigenvalues --   -1.86285  -1.86263  -1.86254  -1.86135  -1.86120
 Alpha  occ. eigenvalues --   -1.86107  -1.86094  -1.86027  -1.86009  -1.85979
 Alpha  occ. eigenvalues --   -1.85904  -1.85883  -1.85786  -1.85712  -1.85656
 Alpha  occ. eigenvalues --   -1.51221  -1.51131  -1.51122  -1.13020  -1.11245
 Alpha  occ. eigenvalues --   -1.11158  -1.11157  -1.08968  -1.08529  -1.08497
 Alpha  occ. eigenvalues --   -1.08305  -1.07555  -1.07485  -1.07478  -1.06894
 Alpha  occ. eigenvalues --   -1.06883  -1.06864  -1.06284  -1.06263  -1.05362
 Alpha  occ. eigenvalues --   -1.05357  -1.04973  -1.04967  -1.04952  -1.04236
 Alpha  occ. eigenvalues --   -1.04226  -1.04190  -1.04044  -1.04011  -1.03992
 Alpha  occ. eigenvalues --   -1.03934  -1.03918  -1.03890  -1.03760  -1.03747
 Alpha  occ. eigenvalues --   -1.03613  -1.03569  -1.03305  -1.03267  -1.03165
 Alpha  occ. eigenvalues --   -1.03146  -1.03083  -1.02998  -0.94377  -0.86686
 Alpha  occ. eigenvalues --   -0.86605  -0.86599  -0.86527  -0.86496  -0.86495
 Alpha  occ. eigenvalues --   -0.86422  -0.86403  -0.86397  -0.86385  -0.82815
 Alpha  occ. eigenvalues --   -0.79754  -0.71491  -0.69673  -0.68021  -0.64575
 Alpha  occ. eigenvalues --   -0.63945  -0.63880  -0.63861  -0.63274  -0.63259
 Alpha  occ. eigenvalues --   -0.63147  -0.62977  -0.62666  -0.62599  -0.61934
 Alpha  occ. eigenvalues --   -0.61599  -0.61579  -0.61479  -0.61221  -0.61203
 Alpha  occ. eigenvalues --   -0.61162  -0.60422  -0.59461  -0.59437  -0.59416
 Alpha  occ. eigenvalues --   -0.59370  -0.59340  -0.58697  -0.58008  -0.57977
 Alpha  occ. eigenvalues --   -0.57895  -0.57060  -0.57036  -0.56998  -0.56257
 Alpha  occ. eigenvalues --   -0.56233  -0.56091  -0.55707  -0.54866  -0.54804
 Alpha  occ. eigenvalues --   -0.54767  -0.54533  -0.54236  -0.54116  -0.54102
 Alpha  occ. eigenvalues --   -0.54027  -0.53962  -0.53268  -0.53228  -0.53094
 Alpha  occ. eigenvalues --   -0.53053  -0.52912  -0.52738  -0.52704  -0.52656
 Alpha  occ. eigenvalues --   -0.52619  -0.52515  -0.52461  -0.52428  -0.51624
 Alpha  occ. eigenvalues --   -0.51603  -0.51381  -0.51342  -0.51319  -0.51256
 Alpha  occ. eigenvalues --   -0.51187  -0.51164  -0.50993  -0.50803  -0.50623
 Alpha  occ. eigenvalues --   -0.50600  -0.50596  -0.49964  -0.49950  -0.49291
 Alpha  occ. eigenvalues --   -0.49260  -0.49244  -0.49214  -0.49160  -0.49087
 Alpha  occ. eigenvalues --   -0.48906  -0.48079  -0.48036  -0.47923  -0.47647
 Alpha  occ. eigenvalues --   -0.47394  -0.47294  -0.47248  -0.47047  -0.46980
 Alpha  occ. eigenvalues --   -0.46925  -0.46639  -0.46630  -0.46455  -0.46216
 Alpha  occ. eigenvalues --   -0.46161  -0.46123  -0.45684  -0.45107  -0.44932
 Alpha  occ. eigenvalues --   -0.44900  -0.44200  -0.44157  -0.44039  -0.43558
 Alpha  occ. eigenvalues --   -0.43324  -0.43284  -0.43145  -0.43140  -0.43100
 Alpha  occ. eigenvalues --   -0.42778  -0.42753  -0.42719  -0.42626  -0.42610
 Alpha  occ. eigenvalues --   -0.42541  -0.42503  -0.42489  -0.42315  -0.42307
 Alpha  occ. eigenvalues --   -0.42280  -0.42063  -0.41924  -0.41885  -0.41872
 Alpha  occ. eigenvalues --   -0.41275  -0.41257  -0.41206  -0.41118  -0.40603
 Alpha  occ. eigenvalues --   -0.40590  -0.40577  -0.40342  -0.39453  -0.39445
 Alpha  occ. eigenvalues --   -0.37097  -0.32577  -0.29234  -0.25055  -0.25027
 Alpha  occ. eigenvalues --   -0.23431
 Alpha virt. eigenvalues --   -0.09371  -0.09169  -0.08281  -0.08235  -0.06852
 Alpha virt. eigenvalues --   -0.06826  -0.06724  -0.04385  -0.04099  -0.04044
 Alpha virt. eigenvalues --   -0.03720  -0.03496  -0.03434  -0.03216  -0.03060
 Alpha virt. eigenvalues --   -0.03017  -0.02994  -0.02234  -0.02190  -0.02162
 Alpha virt. eigenvalues --   -0.01463  -0.01438  -0.01385  -0.01286  -0.01210
 Alpha virt. eigenvalues --   -0.00026  -0.00010   0.00036   0.01397   0.01416
 Alpha virt. eigenvalues --    0.01872   0.01918   0.02002   0.02130   0.02187
 Alpha virt. eigenvalues --    0.02210   0.02264   0.02326   0.02779   0.02852
 Alpha virt. eigenvalues --    0.02933   0.03000   0.03034   0.04382   0.04546
 Alpha virt. eigenvalues --    0.06735   0.07228   0.07431   0.07476   0.07704
 Alpha virt. eigenvalues --    0.08001   0.08483   0.08504   0.08765   0.09133
 Alpha virt. eigenvalues --    0.09301   0.09360   0.09634   0.09835   0.10164
 Alpha virt. eigenvalues --    0.10231   0.10277   0.10299   0.10351   0.10622
 Alpha virt. eigenvalues --    0.10881   0.11039   0.11063   0.11620   0.11716
 Alpha virt. eigenvalues --    0.12194   0.13110   0.13209   0.13321   0.13605
 Alpha virt. eigenvalues --    0.13744   0.14437   0.14539   0.14644   0.14972
 Alpha virt. eigenvalues --    0.15472   0.16115   0.16323   0.16525   0.16679
 Alpha virt. eigenvalues --    0.16700   0.16902   0.17043   0.17206   0.17623
 Alpha virt. eigenvalues --    0.17880   0.18119   0.18178   0.18366   0.18533
 Alpha virt. eigenvalues --    0.18710   0.18879   0.19167   0.19290   0.19475
 Alpha virt. eigenvalues --    0.19518   0.20059   0.20221   0.20345   0.20576
 Alpha virt. eigenvalues --    0.20661   0.20832   0.20910   0.21225   0.21314
 Alpha virt. eigenvalues --    0.21374   0.21485   0.21599   0.21884   0.22041
 Alpha virt. eigenvalues --    0.22432   0.22690   0.22836   0.23152   0.23197
 Alpha virt. eigenvalues --    0.23398   0.23751   0.23917   0.24213   0.24543
 Alpha virt. eigenvalues --    0.24779   0.25209   0.25459   0.25615   0.25920
 Alpha virt. eigenvalues --    0.26043   0.26154   0.26410   0.26480   0.26751
 Alpha virt. eigenvalues --    0.26954   0.27245   0.27340   0.27412   0.27637
 Alpha virt. eigenvalues --    0.27973   0.28208   0.28283   0.28452   0.28672
 Alpha virt. eigenvalues --    0.28957   0.29606   0.29874   0.30418   0.30470
 Alpha virt. eigenvalues --    0.30678   0.30919   0.31203   0.31455   0.31779
 Alpha virt. eigenvalues --    0.32198   0.34759   0.35128   0.35828   0.36279
 Alpha virt. eigenvalues --    0.36571   0.36867   0.37154   0.38063   0.38403
 Alpha virt. eigenvalues --    0.38617   0.39124   0.39455   0.39583   0.40196
 Alpha virt. eigenvalues --    0.40643   0.40823   0.40918   0.41113   0.41637
 Alpha virt. eigenvalues --    0.42053   0.42192   0.42610   0.43254   0.43415
 Alpha virt. eigenvalues --    0.43667   0.44376   0.44655   0.44749   0.45101
 Alpha virt. eigenvalues --    0.45645   0.46228   0.46444   0.46654   0.47108
 Alpha virt. eigenvalues --    0.47350   0.47603   0.47832   0.47974   0.48158
 Alpha virt. eigenvalues --    0.48317   0.48435   0.48515   0.48652   0.48892
 Alpha virt. eigenvalues --    0.49105   0.49290   0.49415   0.49757   0.49851
 Alpha virt. eigenvalues --    0.50162   0.50272   0.50474   0.50899   0.51114
 Alpha virt. eigenvalues --    0.51592   0.51764   0.51902   0.52301   0.52435
 Alpha virt. eigenvalues --    0.52612   0.52831   0.53013   0.53105   0.53276
 Alpha virt. eigenvalues --    0.53519   0.53879   0.54153   0.54280   0.54424
 Alpha virt. eigenvalues --    0.55010   0.55449   0.55618   0.56326   0.56463
 Alpha virt. eigenvalues --    0.56777   0.57339   0.57524   0.58064   0.58293
 Alpha virt. eigenvalues --    0.58575   0.59077   0.59409   0.60262   0.60787
 Alpha virt. eigenvalues --    0.61487   0.62082   0.62655   0.62731   0.63122
 Alpha virt. eigenvalues --    0.64144   0.65276   0.65652   0.65750   0.65864
 Alpha virt. eigenvalues --    0.66111   0.66402   0.66937   0.67323   0.67388
 Alpha virt. eigenvalues --    0.67836   0.68121   0.69489   0.70136   0.71155
 Alpha virt. eigenvalues --    0.71392   0.71965   0.72157   0.72283   0.72303
 Alpha virt. eigenvalues --    0.72573   0.72704   0.73130   0.73293   0.73955
 Alpha virt. eigenvalues --    0.74580   0.74763   0.75352   0.75645   0.75760
 Alpha virt. eigenvalues --    0.76176   0.76651   0.76930   0.77176   0.77394
 Alpha virt. eigenvalues --    0.78156   0.78559   0.78986   0.79435   0.79534
 Alpha virt. eigenvalues --    0.79821   0.80198   0.80415   0.80730   0.81303
 Alpha virt. eigenvalues --    0.81496   0.81604   0.81984   0.82448   0.83089
 Alpha virt. eigenvalues --    0.83755   0.84168   0.84595   0.85475   0.86098
 Alpha virt. eigenvalues --    0.86939   0.87232   0.87919   0.88010   0.88583
 Alpha virt. eigenvalues --    0.88777   0.89039   0.89411   0.89499   0.90189
 Alpha virt. eigenvalues --    0.90471   0.90714   0.91119   0.91257   0.91589
 Alpha virt. eigenvalues --    0.92413   0.92829   0.93302   0.93888   0.94112
 Alpha virt. eigenvalues --    0.94318   0.94889   0.95604   0.95993   0.96563
 Alpha virt. eigenvalues --    0.96891   0.97060   0.97230   0.97801   0.97929
 Alpha virt. eigenvalues --    0.98157   0.98275   0.98463   0.98615   0.98733
 Alpha virt. eigenvalues --    0.98897   0.99428   0.99991   1.00025   1.00165
 Alpha virt. eigenvalues --    1.00809   1.01214   1.01449   1.01512   1.01723
 Alpha virt. eigenvalues --    1.01950   1.02119   1.02322   1.02504   1.02664
 Alpha virt. eigenvalues --    1.02886   1.03408   1.03539   1.03659   1.04054
 Alpha virt. eigenvalues --    1.04253   1.04363   1.04479   1.04731   1.04854
 Alpha virt. eigenvalues --    1.05025   1.05197   1.05279   1.05428   1.05826
 Alpha virt. eigenvalues --    1.05926   1.06340   1.06863   1.07060   1.07169
 Alpha virt. eigenvalues --    1.07501   1.07981   1.08730   1.08847   1.09171
 Alpha virt. eigenvalues --    1.09275   1.09733   1.09964   1.10040   1.10192
 Alpha virt. eigenvalues --    1.10706   1.10822   1.10910   1.10997   1.11219
 Alpha virt. eigenvalues --    1.11446   1.11614   1.11733   1.11922   1.12347
 Alpha virt. eigenvalues --    1.12691   1.13411   1.13733   1.14071   1.14781
 Alpha virt. eigenvalues --    1.15259   1.15748   1.16179   1.16288   1.16646
 Alpha virt. eigenvalues --    1.17195   1.17557   1.17964   1.18520   1.19021
 Alpha virt. eigenvalues --    1.20170   1.20496   1.20888   1.21083   1.21156
 Alpha virt. eigenvalues --    1.21312   1.21683   1.21991   1.22772   1.23508
 Alpha virt. eigenvalues --    1.24909   1.25724   1.25905   1.26313   1.26567
 Alpha virt. eigenvalues --    1.27009   1.27779   1.28232   1.28520   1.28594
 Alpha virt. eigenvalues --    1.28740   1.28826   1.29011   1.29215   1.29967
 Alpha virt. eigenvalues --    1.30114   1.30296   1.30527   1.30689   1.30810
 Alpha virt. eigenvalues --    1.31056   1.31913   1.32180   1.32746   1.32921
 Alpha virt. eigenvalues --    1.33115   1.33437   1.33650   1.33789   1.34043
 Alpha virt. eigenvalues --    1.34180   1.34370   1.34426   1.34588   1.34687
 Alpha virt. eigenvalues --    1.35060   1.35088   1.35613   1.35875   1.36005
 Alpha virt. eigenvalues --    1.36168   1.36295   1.36608   1.36716   1.36769
 Alpha virt. eigenvalues --    1.36986   1.37277   1.37439   1.37594   1.37788
 Alpha virt. eigenvalues --    1.37944   1.38272   1.38411   1.38703   1.38917
 Alpha virt. eigenvalues --    1.39210   1.39544   1.39678   1.39799   1.39962
 Alpha virt. eigenvalues --    1.40363   1.40431   1.40553   1.40774   1.41003
 Alpha virt. eigenvalues --    1.41111   1.41162   1.41433   1.41837   1.41953
 Alpha virt. eigenvalues --    1.42332   1.42601   1.43057   1.43165   1.43273
 Alpha virt. eigenvalues --    1.43564   1.43889   1.44243   1.44359   1.45437
 Alpha virt. eigenvalues --    1.45981   1.46270   1.47532   1.47575   1.47693
 Alpha virt. eigenvalues --    1.48173   1.48266   1.49258   1.49810   1.49974
 Alpha virt. eigenvalues --    1.50299   1.50812   1.51299   1.51710   1.52893
 Alpha virt. eigenvalues --    1.53255   1.55433   1.55689   1.55740   1.55792
 Alpha virt. eigenvalues --    1.55986   1.56230   1.56549   1.56598   1.57186
 Alpha virt. eigenvalues --    1.57277   1.57782   1.58426   1.58863   1.59067
 Alpha virt. eigenvalues --    1.59454   1.59950   1.60135   1.60431   1.60512
 Alpha virt. eigenvalues --    1.60591   1.61092   1.62004   1.62178   1.62790
 Alpha virt. eigenvalues --    1.63815   1.64185   1.64887   1.65365   1.66988
 Alpha virt. eigenvalues --    1.67731   1.68075   1.69543   1.70599   1.70852
 Alpha virt. eigenvalues --    1.71326   1.71655   1.72430   1.73420   1.73914
 Alpha virt. eigenvalues --    1.74898   1.75043   1.75179   1.75598   1.76370
 Alpha virt. eigenvalues --    1.76418   1.76603   1.77129   1.77322   1.78372
 Alpha virt. eigenvalues --    1.78505   1.78745   1.78828   1.80079   1.80238
 Alpha virt. eigenvalues --    1.81301   1.81396   1.81881   1.82221   1.82821
 Alpha virt. eigenvalues --    1.82894   1.83337   1.83723   1.83857   1.84421
 Alpha virt. eigenvalues --    1.85097   1.85255   1.85550   1.85901   1.86182
 Alpha virt. eigenvalues --    1.86551   1.87014   1.87353   1.88064   1.88376
 Alpha virt. eigenvalues --    1.89271   1.89874   1.90151   1.90248   1.90496
 Alpha virt. eigenvalues --    1.90835   1.91257   1.91499   1.92341   1.93290
 Alpha virt. eigenvalues --    1.94787   1.95124   1.95296   1.95444   1.95892
 Alpha virt. eigenvalues --    1.98070   1.99070   1.99314   1.99385   2.04441
 Alpha virt. eigenvalues --    2.06271   2.06667   2.08061   2.08193   2.08492
 Alpha virt. eigenvalues --    2.08661   2.09118   2.09522   2.10092   2.10669
 Alpha virt. eigenvalues --    2.11347   2.11895   2.12423   2.14790   2.15406
 Alpha virt. eigenvalues --    2.15924   2.16621   2.17121   2.17333   2.17683
 Alpha virt. eigenvalues --    2.19993   2.20388   2.20516   2.20814   2.21008
 Alpha virt. eigenvalues --    2.21126   2.22063   2.23832   2.25163   2.25545
 Alpha virt. eigenvalues --    2.26062   2.26324   2.26907   2.27971   2.28425
 Alpha virt. eigenvalues --    2.28683   2.29351   2.29733   2.33476   2.35407
 Alpha virt. eigenvalues --    2.36484   2.38944   2.40775   2.40968   2.43511
 Alpha virt. eigenvalues --    2.44136   2.50608   2.51689   2.57273   2.64869
 Alpha virt. eigenvalues --    2.64921   2.65088   2.65885   2.66107   2.66539
 Alpha virt. eigenvalues --    2.66759   2.66817   2.66893   2.67003   2.67013
 Alpha virt. eigenvalues --    2.67108   2.67216   2.67306   2.67339   2.67381
 Alpha virt. eigenvalues --    2.67652   2.67682   2.67849   2.67881   2.67944
 Alpha virt. eigenvalues --    2.68779   2.68933   2.69187   2.69299   2.69984
 Alpha virt. eigenvalues --    2.70093   2.70154   2.70332   2.70485   2.70620
 Alpha virt. eigenvalues --    2.70663   2.71313   2.71460   2.71492   2.71541
 Alpha virt. eigenvalues --    2.71661   2.71840   2.72410   2.72653   2.72854
 Alpha virt. eigenvalues --    2.72969   2.73057   2.73167   2.73257   2.73306
 Alpha virt. eigenvalues --    2.73391   2.73658   2.73789   2.73844   2.74001
 Alpha virt. eigenvalues --    2.74077   2.74199   2.74366   2.74559   2.74698
 Alpha virt. eigenvalues --    2.74773   2.74910   2.75080   2.75563   2.76057
 Alpha virt. eigenvalues --    2.76148   2.76228   2.76399   2.76708   2.76891
 Alpha virt. eigenvalues --    2.76994   2.77049   2.77080   2.78277   2.78399
 Alpha virt. eigenvalues --    2.78608   2.78746   2.79897   2.80172   2.80277
 Alpha virt. eigenvalues --    2.81029   2.81578   2.81621   2.81847   2.82098
 Alpha virt. eigenvalues --    2.82143   2.82723   2.83022   2.83269   2.83684
 Alpha virt. eigenvalues --    2.83771   2.83948   2.84039   2.84213   2.84958
 Alpha virt. eigenvalues --    2.85489   2.86030   2.86086   2.86491   2.86540
 Alpha virt. eigenvalues --    2.86654   2.86727   2.86848   2.87657   2.88215
 Alpha virt. eigenvalues --    2.88475   2.88693   2.89479   2.89531   2.89623
 Alpha virt. eigenvalues --    2.89806   2.89839   2.89984   2.90255   2.90339
 Alpha virt. eigenvalues --    2.90397   2.91570   2.91743   2.91812   2.91956
 Alpha virt. eigenvalues --    2.92236   2.92439   2.92660   2.92998   2.93133
 Alpha virt. eigenvalues --    2.93244   2.93470   2.93668   2.93875   2.94128
 Alpha virt. eigenvalues --    2.94198   2.95067   2.95279   2.95451   2.95734
 Alpha virt. eigenvalues --    2.95836   2.95910   2.96370   2.96566   2.96665
 Alpha virt. eigenvalues --    2.96733   2.96871   2.96915   2.97141   2.97417
 Alpha virt. eigenvalues --    2.97541   2.97690   2.97905   2.98290   2.99051
 Alpha virt. eigenvalues --    2.99252   2.99613   2.99752   2.99854   3.00091
 Alpha virt. eigenvalues --    3.00366   3.00530   3.01152   3.01337   3.01630
 Alpha virt. eigenvalues --    3.02785   3.03279   3.03413   3.03775   3.04678
 Alpha virt. eigenvalues --    3.06080   3.06285   3.06691   3.11029   3.11154
 Alpha virt. eigenvalues --    3.11249   3.11335   3.12028   3.12391   3.13570
 Alpha virt. eigenvalues --    3.13665   3.13803   3.16741   3.20011   3.21749
 Alpha virt. eigenvalues --    3.21853   3.23846   3.32524   3.40396   3.40882
 Alpha virt. eigenvalues --    3.41359   3.42208   3.43963   3.44071   3.45076
 Alpha virt. eigenvalues --    3.45420   3.45568   3.46588   3.46684   3.47158
 Alpha virt. eigenvalues --    3.48417   3.50650   3.51364   3.51763   3.53044
 Alpha virt. eigenvalues --    3.53230   3.53825   3.54285   3.54672   3.54893
 Alpha virt. eigenvalues --    3.54984   3.55038   3.55228   3.55875   3.57162
 Alpha virt. eigenvalues --    3.57268   3.57765   3.59097   3.59321   3.59872
 Alpha virt. eigenvalues --    3.60402   3.60924   3.61268   3.61591   3.62109
 Alpha virt. eigenvalues --    3.69698   3.74776  68.64745  68.65713  68.66846
 Alpha virt. eigenvalues --   68.69047  68.72761  68.73965  68.81617  68.82542
 Alpha virt. eigenvalues --   68.83026  68.85944  68.87074  68.88126 576.23167
 Alpha virt. eigenvalues --  576.24112 576.25224 576.27372 576.31101 576.32290
 Alpha virt. eigenvalues --  576.39794 576.40697 576.41166 576.43989 576.45089
 Alpha virt. eigenvalues --  576.46135
          Condensed to atoms (all electrons):
 Mulliken charges:
               1
     1  Cl  -0.899434
     2  C   -0.081881
     3  C    0.046227
     4  C   -0.081317
     5  C   -0.034749
     6  C   -0.033052
     7  C   -0.048188
     8  H    0.028557
     9  H    0.029592
    10  H    0.041489
    11  H    0.037497
    12  H    0.039581
    13  C   -0.127887
    14  C    0.036805
    15  H    0.019079
    16  H    0.036003
    17  H    0.029434
    18  O   -0.660564
    19  O   -0.658990
    20  O   -0.654544
    21  O   -0.661164
    22  W    1.728419
    23  W    1.668511
    24  W    1.680224
    25  W    1.691342
    26  W    1.670948
    27  W    1.723780
    28  W    1.612733
    29  W    1.679949
    30  O   -0.320240
    31  O   -0.365551
    32  O   -0.365792
    33  O   -0.357244
    34  O   -0.661170
    35  O   -0.669123
    36  O   -0.658832
    37  O   -0.661116
    38  O   -0.366383
    39  O   -0.366952
    40  O   -0.299171
    41  O   -0.365015
    42  O   -0.668350
    43  O   -0.661289
    44  O   -0.657353
    45  O   -0.664511
    46  O   -0.367129
    47  O   -0.320604
    48  O   -0.360081
    49  O   -0.364622
    50  W    1.667691
    51  W    1.672359
    52  W    1.681982
    53  W    1.679306
    54  O   -0.721732
    55  O   -0.704676
    56  O   -0.723251
    57  O   -0.720671
    58  O   -0.702774
    59  O   -0.723834
    60  O   -0.722067
    61  O   -0.717649
    62  O   -0.722248
    63  O   -0.704649
    64  O   -0.723258
    65  O   -0.724497
    66  O   -0.800606
    67  O   -0.799858
    68  O   -0.797366
    69  O   -0.807780
    70  K    0.865810
    71  K    0.863012
    72  K    0.862528
    73  V    1.186354
 Sum of Mulliken charges =  -1.00000
 Mulliken charges with hydrogens summed into heavy atoms:
               1
     1  Cl  -0.899434
     2  C   -0.053324
     3  C    0.046227
     4  C   -0.051725
     5  C    0.006740
     6  C    0.004444
     7  C   -0.008607
    13  C   -0.108808
    14  C    0.102242
    18  O   -0.660564
    19  O   -0.658990
    20  O   -0.654544
    21  O   -0.661164
    22  W    1.728419
    23  W    1.668511
    24  W    1.680224
    25  W    1.691342
    26  W    1.670948
    27  W    1.723780
    28  W    1.612733
    29  W    1.679949
    30  O   -0.320240
    31  O   -0.365551
    32  O   -0.365792
    33  O   -0.357244
    34  O   -0.661170
    35  O   -0.669123
    36  O   -0.658832
    37  O   -0.661116
    38  O   -0.366383
    39  O   -0.366952
    40  O   -0.299171
    41  O   -0.365015
    42  O   -0.668350
    43  O   -0.661289
    44  O   -0.657353
    45  O   -0.664511
    46  O   -0.367129
    47  O   -0.320604
    48  O   -0.360081
    49  O   -0.364622
    50  W    1.667691
    51  W    1.672359
    52  W    1.681982
    53  W    1.679306
    54  O   -0.721732
    55  O   -0.704676
    56  O   -0.723251
    57  O   -0.720671
    58  O   -0.702774
    59  O   -0.723834
    60  O   -0.722067
    61  O   -0.717649
    62  O   -0.722248
    63  O   -0.704649
    64  O   -0.723258
    65  O   -0.724497
    66  O   -0.800606
    67  O   -0.799858
    68  O   -0.797366
    69  O   -0.807780
    70  K    0.865810
    71  K    0.863012
    72  K    0.862528
    73  V    1.186354
 Electronic spatial extent (au):  <R**2>=         317459.7016
 Charge=             -1.0000 electrons
 Dipole moment (field-independent basis, Debye):
    X=             50.3285    Y=            -51.5642    Z=            -39.0138  Tot=             81.9384
 Quadrupole moment (field-independent basis, Debye-Ang):
   XX=          -1045.4321   YY=           -889.2681   ZZ=           -921.3947
   XY=            451.1209   XZ=            452.4210   YZ=           -481.4800
 Traceless Quadrupole moment (field-independent basis, Debye-Ang):
   XX=            -93.4005   YY=             62.7636   ZZ=             30.6369
   XY=            451.1209   XZ=            452.4210   YZ=           -481.4800
 Octapole moment (field-independent basis, Debye-Ang**2):
  XXX=          13257.8108  YYY=          -1092.8204  ZZZ=         -19263.7965  XYY=           6068.9606
  XXY=          -3596.2983  XXZ=          -9340.6995  XZZ=           7294.1485  YZZ=          -4209.1377
  YYZ=          -9058.9741  XYZ=           4766.4172
 Hexadecapole moment (field-independent basis, Debye-Ang**3):
 XXXX=        -156653.5839 YYYY=         -54441.6950 ZZZZ=        -348243.3614 XXXY=          36271.2867
 XXXZ=         121153.3595 YYYX=          21101.3588 YYYZ=         -13023.3768 ZZZX=         127349.2534
 ZZZY=         -35973.3336 XXYY=         -55657.2182 XXZZ=        -107129.2706 YYZZ=        -100143.5432
 XXYZ=         -41713.6104 YYXZ=          61585.3801 ZZXY=          50073.5363
 N-N= 2.095188225985D+04 E-N=-5.898796752873D+04  KE= 6.765171395622D+03
   1 Symmetry operations used in ECPInt.
 ECPInt:  NShTT=  127765 NPrTT=  468030 LenC2=   96364 LenP2D=  220487.
 LDataN:  DoStor=T MaxTD1= 9 Len=  602
 D1PCM: PCM CHGder 1st derivatives, ID1Alg=3 FixD1E=F DoIter=F DoCFld=F I1PDM=0.
 Calling FoFJK, ICntrl=      2127 FMM=T ISym2X=0 I1Cent= 0 IOpClX= 0 NMat=1 NMatS=1 NMatT=0.
 Defaulting to unpruned grid for atomic number  74.
 Defaulting to unpruned grid for atomic number  74.
 Defaulting to unpruned grid for atomic number  74.
 Defaulting to unpruned grid for atomic number  74.
 Defaulting to unpruned grid for atomic number  74.
 Defaulting to unpruned grid for atomic number  74.
 Defaulting to unpruned grid for atomic number  74.
 Defaulting to unpruned grid for atomic number  74.
 Defaulting to unpruned grid for atomic number  74.
 Defaulting to unpruned grid for atomic number  74.
 Defaulting to unpruned grid for atomic number  74.
 Defaulting to unpruned grid for atomic number  74.
 Defaulting to unpruned grid for atomic number  74.
 Defaulting to unpruned grid for atomic number  74.
 Defaulting to unpruned grid for atomic number  74.
 Defaulting to unpruned grid for atomic number  74.
 Defaulting to unpruned grid for atomic number  74.
 Defaulting to unpruned grid for atomic number  74.
 Defaulting to unpruned grid for atomic number  74.
 Defaulting to unpruned grid for atomic number  74.
 Defaulting to unpruned grid for atomic number  74.
 Defaulting to unpruned grid for atomic number  74.
 Defaulting to unpruned grid for atomic number  74.
 Defaulting to unpruned grid for atomic number  74.
 Defaulting to unpruned grid for atomic number  74.
 Defaulting to unpruned grid for atomic number  74.
 Defaulting to unpruned grid for atomic number  74.
 Defaulting to unpruned grid for atomic number  74.
 Defaulting to unpruned grid for atomic number  74.
 Defaulting to unpruned grid for atomic number  74.
 Defaulting to unpruned grid for atomic number  74.
 Defaulting to unpruned grid for atomic number  74.
 Defaulting to unpruned grid for atomic number  74.
 Defaulting to unpruned grid for atomic number  74.
 Defaulting to unpruned grid for atomic number  74.
 Defaulting to unpruned grid for atomic number  74.
 Defaulting to unpruned grid for atomic number  74.
 Defaulting to unpruned grid for atomic number  74.
 Defaulting to unpruned grid for atomic number  74.
 Defaulting to unpruned grid for atomic number  74.
 Defaulting to unpruned grid for atomic number  74.
 Defaulting to unpruned grid for atomic number  74.
 Defaulting to unpruned grid for atomic number  74.
 Defaulting to unpruned grid for atomic number  74.
 Defaulting to unpruned grid for atomic number  74.
 Defaulting to unpruned grid for atomic number  74.
 Defaulting to unpruned grid for atomic number  74.
 Defaulting to unpruned grid for atomic number  74.
 Defaulting to unpruned grid for atomic number  74.
 Defaulting to unpruned grid for atomic number  74.
 Defaulting to unpruned grid for atomic number  74.
 Defaulting to unpruned grid for atomic number  74.
 Defaulting to unpruned grid for atomic number  74.
 Defaulting to unpruned grid for atomic number  74.
 Defaulting to unpruned grid for atomic number  74.
 Defaulting to unpruned grid for atomic number  74.
 -------------------------------------------------------------------
 Center     Atomic                   Forces (Hartrees/Bohr)
 Number     Number              X              Y              Z
 -------------------------------------------------------------------
      1       17          -0.002249834    0.007635128    0.002302552
      2        6          -0.001326233   -0.000561901   -0.001305835
      3        6          -0.000678193   -0.001643492    0.003307480
      4        6           0.001533835    0.001888501    0.000499231
      5        6           0.000854366   -0.000014302    0.001133584
      6        6          -0.000289204   -0.000228424    0.000877061
      7        6          -0.000838917   -0.001275954    0.000449163
      8        1           0.000228263    0.000058492   -0.000011205
      9        1           0.000072199    0.000179986   -0.000263129
     10        1           0.000187152   -0.000491566   -0.000239498
     11        1          -0.000371994    0.000082000    0.000164397
     12        1           0.000333504   -0.000361908    0.000276009
     13        6           0.007956103    0.009607604   -0.007002928
     14        6          -0.003099725   -0.016099525   -0.000555832
     15        1          -0.000906551    0.000294383    0.000409555
     16        1          -0.000718120    0.000367620    0.000318966
     17        1          -0.001651996    0.001351902   -0.000526181
     18        8          -0.003085383    0.000645868    0.000875411
     19        8           0.002979147   -0.000839047    0.000957053
     20        8           0.002487908   -0.002631809   -0.000698438
     21        8          -0.002288093    0.001947391   -0.000901627
     22       74           0.001467633    0.009461458   -0.009243689
     23       74          -0.002275670   -0.009363894   -0.009608518
     24       74           0.006125698    0.007689176    0.009596678
     25       74          -0.006495209   -0.006735929    0.009577575
     26       74           0.007935235   -0.007256623   -0.010017601
     27       74          -0.008027949    0.007853573   -0.009859245
     28       74          -0.011099167    0.002923908    0.009998447
     29       74           0.010538939   -0.001942704    0.009974948
     30        8          -0.000857469   -0.003065895    0.002436842
     31        8           0.000475748    0.003253232    0.002940322
     32        8          -0.002203134   -0.002240195   -0.002779593
     33        8           0.002153329    0.002181862   -0.003030780
     34        8          -0.001008250   -0.000834190    0.003062276
     35        8           0.001221958    0.000296774    0.003242158
     36        8           0.000405009   -0.001299334   -0.003054984
     37        8          -0.000149849    0.001092497   -0.003155650
     38        8          -0.004363484   -0.001299653   -0.001054777
     39        8           0.004370529    0.001370876   -0.001100909
     40        8           0.002365595   -0.005318445    0.000774689
     41        8          -0.001323731    0.004476910    0.000945101
     42        8          -0.002053185   -0.002583439    0.001150787
     43        8           0.002252899    0.002402993    0.000893327
     44        8          -0.000307455   -0.003516219   -0.000584802
     45        8           0.000827951    0.003071809   -0.001137063
     46        8          -0.002314770    0.002549869    0.003265551
     47        8           0.002528928   -0.001927544    0.003456511
     48        8           0.003636635   -0.000776658   -0.003592573
     49        8          -0.003334177    0.000372204   -0.003291649
     50       74           0.013342910    0.004726178    0.002797080
     51       74          -0.013845255   -0.003851255    0.003107887
     52       74          -0.005007711    0.014727806   -0.003003413
     53       74           0.004298946   -0.013705151   -0.002687872
     54        8          -0.000547827    0.001472000    0.002143431
     55        8           0.000644518   -0.001649753    0.002017039
     56        8           0.001859011   -0.000019247   -0.002312678
     57        8          -0.001513058   -0.000620485   -0.001966684
     58        8           0.000181291   -0.002380437    0.001055934
     59        8           0.000331640    0.002405600    0.001568469
     60        8          -0.001563192   -0.001734250   -0.001433115
     61        8           0.001793189    0.001462333   -0.001543920
     62        8          -0.001092427    0.001982897    0.000880422
     63        8           0.001066697   -0.002337764    0.000561828
     64        8           0.002221975   -0.000096664   -0.001066402
     65        8          -0.002441561   -0.000319411   -0.000837021
     66        8          -0.025267150   -0.004631350    0.016219326
     67        8           0.025537328    0.005321769    0.016052526
     68        8           0.010567101   -0.024296936   -0.016342342
     69        8          -0.010438615    0.023159103   -0.016427313
     70       19           0.000249109   -0.000758910   -0.000594755
     71       19           0.001188241    0.000450687    0.000945321
     72       19          -0.000797503   -0.000255152    0.000608507
     73       23          -0.000388479    0.000201026    0.000388580
 -------------------------------------------------------------------
 Cartesian Forces:  Max     0.025537328 RMS     0.005783273

 GradGradGradGradGradGradGradGradGradGradGradGradGradGradGradGradGradGrad
 Berny optimization.
 Search for a local minimum.
 Step number   1 out of a maximum of    2
 All quantities printed in internal units (Hartrees-Bohrs-Radians)
 Second derivative matrix not updated -- first step.
 ITU=  0
     Eigenvalues ---    0.00000   0.00000   0.00000   0.00010   0.00094
     Eigenvalues ---    0.00095   0.00254   0.00560   0.00618   0.01644
     Eigenvalues ---    0.01954   0.02898   0.02926   0.03185   0.03399
     Eigenvalues ---    0.03423   0.03707   0.03714   0.04156   0.04483
     Eigenvalues ---    0.04574   0.04582   0.04595   0.04816   0.04829
     Eigenvalues ---    0.04990   0.05324   0.05527   0.05542   0.06341
     Eigenvalues ---    0.06376   0.06533   0.06784   0.06861   0.07048
     Eigenvalues ---    0.07308   0.07336   0.07616   0.08305   0.08354
     Eigenvalues ---    0.08682   0.08691   0.08878   0.08899   0.09745
     Eigenvalues ---    0.09843   0.10037   0.10366   0.10401   0.10502
     Eigenvalues ---    0.10740   0.10873   0.11470   0.11514   0.11971
     Eigenvalues ---    0.12000   0.12067   0.12484   0.12540   0.12581
     Eigenvalues ---    0.12612   0.12737   0.12830   0.12974   0.13028
     Eigenvalues ---    0.13801   0.13907   0.14198   0.14364   0.14699
     Eigenvalues ---    0.16679   0.16707   0.16876   0.17161   0.17567
     Eigenvalues ---    0.17656   0.18517   0.19692   0.19829   0.20137
     Eigenvalues ---    0.20715   0.21045   0.21690   0.21741   0.22020
     Eigenvalues ---    0.22354   0.23032   0.23310   0.23765   0.23775
     Eigenvalues ---    0.24508   0.24592   0.24780   0.25580   0.25684
     Eigenvalues ---    0.26063   0.26183   0.27463   0.27558   0.27742
     Eigenvalues ---    0.28281   0.28390   0.28782   0.29488   0.29959
     Eigenvalues ---    0.30511   0.30595   0.30716   0.30750   0.30848
     Eigenvalues ---    0.30933   0.31150   0.31289   0.31551   0.32348
     Eigenvalues ---    0.32501   0.32535   0.32668   0.32890   0.33499
     Eigenvalues ---    0.33592   0.34959   0.35414   0.35674   0.36679
     Eigenvalues ---    0.37360   0.37457   0.37580   0.37960   0.38369
     Eigenvalues ---    0.38672   0.39157   0.40118   0.40187   0.41294
     Eigenvalues ---    0.42188   0.42256   0.43541   0.43699   0.44770
     Eigenvalues ---    0.45335   0.45597   0.45712   0.47102   0.48015
     Eigenvalues ---    0.48267   0.48707   0.48779   0.49472   0.49759
     Eigenvalues ---    0.49801   0.50548   0.51312   0.51442   0.51882
     Eigenvalues ---    0.52911   0.53429   0.54749   0.58955   0.64325
     Eigenvalues ---    0.67562   0.76577   0.81453   0.82725   0.96857
     Eigenvalues ---    0.97273   0.98734   0.99211   1.02260   1.04436
     Eigenvalues ---    1.07119   1.11584   1.12055   1.12289   1.16032
     Eigenvalues ---    1.19459   1.19883   1.20557   1.22761   1.23067
     Eigenvalues ---    1.23411   1.26175   1.26852   1.26942   1.27129
     Eigenvalues ---    1.27746   1.29017   1.29182   1.44913   1.45299
     Eigenvalues ---    1.45425   1.47735   1.51225   1.51526   1.51801
     Eigenvalues ---    1.52436   1.55313   1.55456   1.56161   1.57996
     Eigenvalues ---    1.58248   1.59424   1.61253   1.64299   1.66440
     Eigenvalues ---    1.76479   1.80228   1.82302   1.83046   1.83693
     Eigenvalues ---    1.92754   1.96765   2.72701
 Eigenvalue     1 is   0.00D+00 Eigenvector:
                          Y9        Y15       Y10       Y4        Y13
   1                    0.17443   0.17443   0.17443   0.17443   0.17443
                          Y16       Y5        Y14       Y3        Y17
   1                    0.17443   0.17443   0.17443   0.17443   0.17443
 Eigenvalue     2 is   2.66D-07 Eigenvector:
                          Y16       X16       X11       Y11       Y14
   1                    0.31639  -0.27109   0.26667  -0.23913   0.23118
                          Y15       Z11       Y17       X14       X6
   1                    0.22955  -0.19942   0.19124  -0.19078   0.18511
 Eigenvalue     3 is   2.32D-06 Eigenvector:
                          X9        X10       Y12       Y9        X12
   1                    0.33085   0.29496   0.26990  -0.24927  -0.24739
                          Y8        Y10       X8        X15       X4
   1                    0.24076  -0.22082  -0.21471   0.21400   0.20412
 Quadratic step=2.599D+01 exceeds max=3.000D-01 adjusted using Lamda=-1.080D-02.
 Angle between NR and scaled steps=  36.33 degrees.
 Angle between quadratic step and forces=  66.98 degrees.
 Linear search not attempted -- first point.
 B after Tr=    -0.000079    0.007213    0.001748
         Rot=    1.000000   -0.000167    0.000014    0.000108 Ang=  -0.02 deg.
 Variable       Old X    -DE/DX   Delta X   Delta X   Delta X     New X
                                 (Linear)    (Quad)   (Total)
    X1      -18.36855  -0.00225   0.00000  -0.00214   0.00062 -18.36793
    Y1       15.65544   0.00764   0.00000   0.00770   0.01221  15.66764
    Z1       19.92185   0.00230   0.00000   0.00241   0.00889  19.93075
    X2      -15.88370  -0.00133   0.00000   0.00359   0.00463 -15.87907
    Y2        8.13663  -0.00056   0.00000  -0.01940  -0.01647   8.12017
    Z2       23.04835  -0.00131   0.00000  -0.00089   0.00314  23.05149
    X3      -17.42730  -0.00068   0.00000   0.01562   0.01659 -17.41071
    Y3        7.53261  -0.00164   0.00000  -0.02976  -0.02581   7.50681
    Z3       20.96773   0.00331   0.00000  -0.00487  -0.00109  20.96664
    X4      -19.12467   0.00153   0.00000   0.00688   0.00740 -19.11727
    Y4        5.50005   0.00189   0.00000  -0.01312  -0.00889   5.49116
    Z4       21.21982   0.00050   0.00000   0.01301   0.01607  21.23589
    X5      -19.29356   0.00085   0.00000  -0.00050  -0.00033 -19.29389
    Y5        4.14541  -0.00001   0.00000  -0.00620  -0.00268   4.14274
    Z5       23.46883   0.00113   0.00000   0.01826   0.02086  23.48970
    X6      -17.75051  -0.00029   0.00000  -0.01054  -0.01029 -17.76080
    Y6        4.77330  -0.00023   0.00000  -0.00097   0.00154   4.77484
    Z6       25.51335   0.00088   0.00000   0.02208   0.02494  25.53828
    X7      -16.04167  -0.00084   0.00000  -0.00578  -0.00509 -16.04676
    Y7        6.77207  -0.00128   0.00000  -0.00784  -0.00563   6.76644
    Z7       25.28884   0.00045   0.00000   0.00986   0.01343  25.30227
    X8      -14.54453   0.00023   0.00000   0.01035   0.01174 -14.53280
    Y8        9.70087   0.00006   0.00000  -0.02425  -0.02157   9.67930
    Z8       22.91825  -0.00001   0.00000  -0.00539  -0.00080  22.91745
    X9      -20.34070   0.00007   0.00000   0.01036   0.01082 -20.32988
    Y9        4.99584   0.00018   0.00000  -0.01522  -0.01018   4.98566
    Z9       19.62631  -0.00026   0.00000   0.01026   0.01312  19.63943
   X10      -20.64096   0.00019   0.00000   0.00232   0.00215 -20.63881
   Y10        2.58901  -0.00049   0.00000  -0.00972  -0.00596   2.58305
   Z10       23.63227  -0.00024   0.00000   0.01278   0.01482  23.64710
   X11      -17.85964  -0.00037   0.00000  -0.01920  -0.01923 -17.87887
   Y11        3.69626   0.00008   0.00000   0.00783   0.00977   3.70603
   Z11       27.27023   0.00016   0.00000   0.02661   0.02911  27.29934
   X12      -14.82918   0.00033   0.00000  -0.00197  -0.00121 -14.83039
   Y12        7.28323  -0.00036   0.00000  -0.00715  -0.00573   7.27750
   Z12       26.88032   0.00028   0.00000   0.00791   0.01168  26.89200
   X13      -17.35450   0.00796   0.00000   0.04196   0.04330 -17.31120
   Y13        8.97024   0.00961   0.00000  -0.07623  -0.07148   8.89876
   Z13       18.60327  -0.00700   0.00000  -0.04427  -0.04002  18.56325
   X14      -15.95842  -0.00310   0.00000   0.04652   0.04831 -15.91011
   Y14       11.06105  -0.01610   0.00000  -0.11427  -0.10968  10.95137
   Z14       18.17650  -0.00056   0.00000  -0.07615  -0.07118  18.10532
   X15      -18.59310  -0.00091   0.00000   0.00990   0.01113 -18.58197
   Y15        8.27546   0.00029   0.00000  -0.06900  -0.06349   8.21197
   Z15       17.09590   0.00041   0.00000  -0.02030  -0.01632  17.07958
   X16      -15.99892  -0.00072   0.00000   0.01959   0.02164 -15.97728
   Y16       12.01191   0.00037   0.00000  -0.10778  -0.10256  11.90934
   Z16       16.34907   0.00032   0.00000  -0.07138  -0.06608  16.28299
   X17      -14.62273  -0.00165   0.00000   0.00948   0.01140 -14.61132
   Y17       11.79978   0.00135   0.00000  -0.05782  -0.05397  11.74581
   Z17       19.56127  -0.00053   0.00000  -0.07151  -0.06623  19.49504
   X18       -1.83796  -0.00309   0.00000  -0.01752  -0.01873  -1.85669
   Y18       -3.45894   0.00065   0.00000   0.00443   0.00733  -3.45160
   Z18       14.07693   0.00088   0.00000   0.01032   0.01086  14.08779
   X19      -15.81878   0.00298   0.00000   0.01083   0.00983 -15.80894
   Y19       -2.49058  -0.00084   0.00000   0.00906   0.01496  -2.47562
   Z19       14.09386   0.00096   0.00000   0.01271   0.01319  14.10706
   X20      -13.23535   0.00249   0.00000   0.01132   0.01124 -13.22411
   Y20        2.50586  -0.00263   0.00000  -0.00699  -0.00355   2.50230
   Z20       19.83362  -0.00070   0.00000  -0.00535  -0.00312  19.83049
   X21       -4.38833  -0.00229   0.00000  -0.01127  -0.01368  -4.40202
   Y21       -8.31681   0.00195   0.00000   0.01302   0.01452  -8.30230
   Z21       19.94847  -0.00090   0.00000  -0.01097  -0.01212  19.93635
   X22       -6.36416   0.00147   0.00000  -0.00922  -0.00934  -6.37350
   Y22        1.35664   0.00946   0.00000   0.01518   0.01965   1.37629
   Z22       12.31267  -0.00924   0.00000  -0.00853  -0.00650  12.30617
   X23      -11.33773  -0.00228   0.00000   0.00375   0.00176 -11.33597
   Y23       -7.27769  -0.00936   0.00000   0.00084   0.00634  -7.27135
   Z23       12.43925  -0.00961   0.00000  -0.00608  -0.00708  12.43217
   X24       -6.75057   0.00613   0.00000   0.01366   0.01335  -6.73722
   Y24        1.66629   0.00769   0.00000  -0.00014   0.00132   1.66761
   Z24       21.52438   0.00960   0.00000   0.01210   0.01422  21.53860
   X25      -10.90478  -0.00650   0.00000  -0.01475  -0.01701 -10.92179
   Y25       -7.37510  -0.00674   0.00000   0.00588   0.00820  -7.36690
   Z25       21.65415   0.00958   0.00000   0.00555   0.00453  21.65868
   X26       -4.63502   0.00794   0.00000  -0.00332  -0.00479  -4.63981
   Y26       -4.88934  -0.00726   0.00000  -0.00620  -0.00200  -4.89134
   Z26       12.03004  -0.01002   0.00000  -0.00453  -0.00455  12.02549
   X27      -13.02507  -0.00803   0.00000  -0.00555  -0.00618 -13.03125
   Y27       -1.03582   0.00785   0.00000   0.02388   0.02990  -1.00592
   Z27       11.98652  -0.00986   0.00000  -0.00280  -0.00175  11.98477
   X28      -12.79365  -0.01110   0.00000  -0.00943  -0.01022 -12.80387
   Y28       -0.51695   0.00292   0.00000  -0.00204   0.00060  -0.51634
   Z28       21.92205   0.01000   0.00000   0.00719   0.00842  21.93046
   X29       -4.83583   0.01054   0.00000   0.00879   0.00699  -4.82884
   Y29       -5.18868  -0.00194   0.00000   0.00752   0.00842  -5.18026
   Z29       21.97614   0.00997   0.00000   0.00547   0.00536  21.98150
   X30       -5.89475  -0.00086   0.00000   0.00333   0.00376  -5.89099
   Y30        3.62333  -0.00307   0.00000   0.00029   0.00539   3.62871
   Z30       10.11910   0.00244   0.00000  -0.01048  -0.00768  10.11142
   X31      -11.61583   0.00048   0.00000  -0.00855  -0.01099 -11.62682
   Y31       -9.64105   0.00325   0.00000   0.00977   0.01605  -9.62500
   Z31       10.28430   0.00294   0.00000  -0.00283  -0.00463  10.27968
   X32       -4.99931  -0.00220   0.00000   0.00107   0.00105  -4.99826
   Y32        3.26333  -0.00224   0.00000   0.00241   0.00277   3.26610
   Z32       23.69086  -0.00278   0.00000   0.00945   0.01215  23.70301
   X33      -12.62396   0.00215   0.00000  -0.00308  -0.00574 -12.62970
   Y33       -8.92270   0.00218   0.00000   0.00171   0.00366  -8.91904
   Z33       23.87675  -0.00303   0.00000   0.00075  -0.00084  23.87591
   X34       -5.01925  -0.00101   0.00000  -0.01174  -0.01247  -5.03172
   Y34       -1.71092  -0.00083   0.00000  -0.00067   0.00409  -1.70683
   Z34       10.55834   0.00306   0.00000   0.01160   0.01263  10.57097
   X35      -12.63424   0.00122   0.00000   0.00611   0.00481 -12.62943
   Y35       -4.31419   0.00030   0.00000   0.01609   0.02247  -4.29173
   Z35       10.62585   0.00324   0.00000   0.01349   0.01346  10.63930
   X36       -9.94763   0.00041   0.00000   0.00324   0.00273  -9.94490
   Y36        1.01357  -0.00130   0.00000  -0.01019  -0.00865   1.00492
   Z36       23.36645  -0.00305   0.00000  -0.00624  -0.00443  23.36202
   X37       -7.66396  -0.00015   0.00000  -0.00333  -0.00550  -7.66946
   Y37       -6.71579   0.00109   0.00000   0.01192   0.01295  -6.70284
   Z37       23.44613  -0.00316   0.00000  -0.01124  -0.01195  23.43418
   X38        0.66797  -0.00436   0.00000   0.00084   0.00024   0.66822
   Y38       -0.18198  -0.00130   0.00000   0.00208   0.00329  -0.17868
   Z38       17.50869  -0.00105   0.00000  -0.00084   0.00086  17.50955
   X39      -18.33038   0.00437   0.00000  -0.00538  -0.00716 -18.33754
   Y39       -5.65163   0.00137   0.00000   0.00990   0.01518  -5.63645
   Z39       17.61009  -0.00110   0.00000  -0.00033  -0.00098  17.60911
   X40      -12.06513   0.00237   0.00000   0.01523   0.01610 -12.04903
   Y40        6.43637  -0.00532   0.00000   0.01192   0.01624   6.45261
   Z40       16.41328   0.00077   0.00000   0.00905   0.01262  16.42590
   X41       -5.60209  -0.00132   0.00000  -0.00350  -0.00668  -5.60878
   Y41      -12.27148   0.00448   0.00000   0.00380   0.00669 -12.26479
   Z41       16.52629   0.00095   0.00000  -0.00139  -0.00390  16.52239
   X42       -3.30699  -0.00205   0.00000  -0.01605  -0.01622  -3.32322
   Y42        1.37537  -0.00258   0.00000  -0.00145   0.00174   1.37711
   Z42       14.15382   0.00115   0.00000   0.00912   0.01123  14.16505
   X43      -14.36573   0.00225   0.00000   0.01004   0.00799 -14.35774
   Y43       -7.33112   0.00240   0.00000   0.01514   0.02067  -7.31045
   Z43       14.27517   0.00089   0.00000   0.00774   0.00665  14.28182
   X44       -8.45987  -0.00031   0.00000   0.00736   0.00763  -8.45225
   Y44        4.14176  -0.00352   0.00000  -0.01327  -0.01083   4.13093
   Z44       19.69734  -0.00058   0.00000   0.00077   0.00366  19.70100
   X45       -9.18428   0.00083   0.00000  -0.00784  -0.01060  -9.19488
   Y45       -9.91470   0.00307   0.00000   0.01847   0.02103  -9.89367
   Z45       19.86501  -0.00114   0.00000  -0.00976  -0.01158  19.85344
   X46       -3.08100  -0.00231   0.00000  -0.00035  -0.00214  -3.08314
   Y46       -6.65298   0.00255   0.00000   0.00657   0.01115  -6.64183
   Z46        9.84035   0.00327   0.00000  -0.00042  -0.00098   9.83937
   X47      -14.67229   0.00253   0.00000  -0.01200  -0.01223 -14.68452
   Y47        0.48439  -0.00193   0.00000   0.01252   0.01965   0.50404
   Z47        9.71658   0.00346   0.00000   0.00645   0.00796   9.72454
   X48      -15.08305   0.00364   0.00000  -0.00135  -0.00217 -15.08522
   Y48       -0.32581  -0.00078   0.00000   0.00606   0.00845  -0.31736
   Z48       24.16201  -0.00359   0.00000   0.00214   0.00337  24.16538
   X49       -2.51196  -0.00333   0.00000   0.00133  -0.00059  -2.51255
   Y49       -5.43389   0.00037   0.00000  -0.00504  -0.00538  -5.43927
   Z49       24.17889  -0.00329   0.00000   0.00016   0.00002  24.17891
   X50       -2.29358   0.01334   0.00000   0.00386   0.00308  -2.29050
   Y50       -1.12464   0.00473   0.00000   0.00837   0.01049  -1.11415
   Z50       16.69911   0.00280   0.00000   0.01243   0.01374  16.71285
   X51      -15.36997  -0.01385   0.00000  -0.00898  -0.01054 -15.38051
   Y51       -4.72885  -0.00385   0.00000   0.00451   0.00943  -4.71941
   Z51       16.77200   0.00311   0.00000   0.01281   0.01256  16.78455
   X52      -11.13488  -0.00501   0.00000   0.00361   0.00382 -11.13106
   Y52        3.47147   0.01473   0.00000   0.01598   0.01988   3.49134
   Z52       17.11052  -0.00300   0.00000  -0.00627  -0.00366  17.10686
   X53       -6.53104   0.00430   0.00000  -0.00449  -0.00705  -6.53809
   Y53       -9.29748  -0.01371   0.00000  -0.00272   0.00012  -9.29737
   Z53       17.30559  -0.00269   0.00000  -0.01234  -0.01389  17.29170
   X54       -7.97682  -0.00055   0.00000  -0.00078  -0.00245  -7.97926
   Y54       -5.90503   0.00147   0.00000  -0.00197   0.00313  -5.90189
   Z54       11.45941   0.00214   0.00000  -0.00610  -0.00655  11.45286
   X55       -9.67740   0.00064   0.00000  -0.00690  -0.00731  -9.68471
   Y55       -0.09999  -0.00165   0.00000   0.01801   0.02351  -0.07648
   Z55       11.37279   0.00202   0.00000  -0.00545  -0.00400  11.36880
   X56      -11.63812   0.00186   0.00000  -0.00986  -0.01138 -11.64950
   Y56       -3.83141  -0.00002   0.00000   0.00054   0.00273  -3.82868
   Z56       22.53266  -0.00231   0.00000   0.00619   0.00634  22.53900
   X57       -5.95329  -0.00151   0.00000   0.01012   0.00901  -5.94427
   Y57       -1.88076  -0.00062   0.00000   0.00358   0.00453  -1.87622
   Z57       22.53076  -0.00197   0.00000   0.01016   0.01112  22.54188
   X58       -8.19851   0.00018   0.00000  -0.00222  -0.00205  -8.20056
   Y58        2.98777  -0.00238   0.00000   0.01460   0.01862   3.00639
   Z58       14.84060   0.00106   0.00000  -0.00731  -0.00478  14.83582
   X59       -9.44677   0.00033   0.00000  -0.00027  -0.00268  -9.44945
   Y59       -8.89059   0.00241   0.00000  -0.00056   0.00369  -8.88690
   Z59       14.96828   0.00157   0.00000  -0.00737  -0.00886  14.95943
   X60       -4.31655  -0.00156   0.00000   0.01009   0.00971  -4.30684
   Y60        1.03425  -0.00173   0.00000   0.00395   0.00572   1.03997
   Z60       19.03615  -0.00143   0.00000   0.01146   0.01343  19.04958
   X61      -13.33020   0.00179   0.00000  -0.01227  -0.01435 -13.34456
   Y61       -6.84667   0.00146   0.00000   0.00534   0.00902  -6.83765
   Z61       19.14396  -0.00154   0.00000   0.00675   0.00585  19.14981
   X62       -4.84916  -0.00109   0.00000  -0.00310  -0.00518  -4.85434
   Y62       -7.40086   0.00198   0.00000  -0.00280   0.00050  -7.40036
   Z62       14.83491   0.00088   0.00000  -0.00782  -0.00869  14.82623
   X63      -12.83756   0.00107   0.00000  -0.00066  -0.00082 -12.83838
   Y63        1.47760  -0.00234   0.00000   0.01826   0.02331   1.50091
   Z63       14.74254   0.00056   0.00000  -0.00425  -0.00235  14.74018
   X64      -14.75054   0.00222   0.00000  -0.00850  -0.00958 -14.76013
   Y64       -2.22578  -0.00010   0.00000   0.00293   0.00690  -2.21887
   Z64       19.20023  -0.00107   0.00000   0.00932   0.00992  19.21014
   X65       -2.90696  -0.00244   0.00000   0.00531   0.00393  -2.90303
   Y65       -3.58663  -0.00032   0.00000   0.00615   0.00757  -3.57906
   Z65       19.17972  -0.00084   0.00000   0.00809   0.00856  19.18827
   X66       -6.31622  -0.02527   0.00000  -0.04783  -0.04880  -6.36502
   Y66       -2.21059  -0.00463   0.00000  -0.00109   0.00242  -2.20817
   Z66       15.14249   0.01622   0.00000   0.02767   0.02850  15.17099
   X67      -11.34235   0.02554   0.00000   0.04136   0.04006 -11.30229
   Y67       -3.72060   0.00532   0.00000   0.01694   0.02150  -3.69910
   Z67       15.18779   0.01605   0.00000   0.02856   0.02876  15.21655
   X68       -9.62375   0.01057   0.00000   0.02011   0.01942  -9.60433
   Y68       -0.41870  -0.02430   0.00000  -0.03625  -0.03325  -0.45194
   Z68       18.79876  -0.01634   0.00000  -0.02491  -0.02357  18.77518
   X69       -7.99281  -0.01044   0.00000  -0.02204  -0.02379  -8.01661
   Y69       -5.40102   0.02316   0.00000   0.04374   0.04639  -5.35463
   Z69       18.85033  -0.01643   0.00000  -0.02680  -0.02706  18.82326
   X70       -6.09783   0.00025   0.00000  -0.00204  -0.00492  -6.10275
   Y70      -11.62831  -0.00076   0.00000  -0.00195   0.00301 -11.62530
   Z70       10.67370  -0.00059   0.00000  -0.00856  -0.01087  10.66283
   X71       -0.22467   0.00119   0.00000   0.01109   0.01035  -0.21432
   Y71       -0.07447   0.00045   0.00000   0.00343   0.00289  -0.07158
   Z71       23.29153   0.00095   0.00000   0.01075   0.01247  23.30400
   X72      -17.57628  -0.00080   0.00000  -0.01144  -0.01332 -17.58960
   Y72       -5.33349  -0.00026   0.00000   0.00375   0.00692  -5.32656
   Z72       23.41689   0.00061   0.00000   0.00784   0.00732  23.42421
   X73       -8.82270  -0.00039   0.00000  -0.00259  -0.00377  -8.82647
   Y73       -2.92980   0.00020   0.00000   0.00578   0.00921  -2.92059
   Z73       16.98962   0.00039   0.00000   0.00172   0.00224  16.99186
         Item               Value     Threshold  Converged?
 Maximum Force            0.025537     0.000450     NO 
 RMS     Force            0.005783     0.000300     NO 
 Maximum Displacement     0.109678     0.001800     NO 
 RMS     Displacement     0.020101     0.001200     NO 
 Predicted change in Energy=-5.431940D-03
 GradGradGradGradGradGradGradGradGradGradGradGradGradGradGradGradGradGrad

 Unable to Open any file for archive entry.
 1\1\GINC-X11P1N2\Force\RwB97XD\def2SVP\C8H8Cl1K3O40V1W12(1-)\MAYUMIAO\
 03-Jun-2024\0\\# def2svp wb97xd scrf=(smd,solvent=acetonitrile) g09def
 ault scf=(xqc,maxcycle=64) force guess=read nosymm\\Title Card\\-1,1\C
 l,-9.72021895,8.28450025,10.54219017\C,-8.40529424,4.30571984,12.19666
 301\C,-9.22213188,3.98608691,11.09564243\C,-10.12033914,2.91049925,11.
 22904459\C,-10.20971142,2.19365801,12.41917041\C,-9.39316338,2.5259201
 6,13.5010808\C,-8.48888723,3.58362248,13.38227672\H,-7.69663642,5.1334
 8004,12.12781345\H,-10.76383305,2.64368699,10.38579402\H,-10.92272807,
 1.37004275,12.50566123\H,-9.45091461,1.95597559,14.43078423\H,-7.84726
 184,3.85411865,14.22445389\C,-9.18360339,4.74684864,9.84442405\C,-8.44
 483072,5.85325346,9.61858796\H,-9.83904254,4.37918594,9.04676149\H,-8.
 46626358,6.35642691,8.65155694\H,-7.73801343,6.24417425,10.35137989\O,
 -0.97260556,-1.83039067,7.44919213\O,-8.37093614,-1.31796011,7.4581507
 9\O,-7.00384622,1.32604248,10.49549852\O,-2.3222064,-4.40106679,10.556
 27623\W,-3.36776656,0.7179034,6.51558432\W,-5.99966593,-3.85118854,6.5
 825687\W,-3.57224556,0.88176346,11.3902091\W,-5.77056131,-3.90273467,1
 1.45888417\W,-2.45274474,-2.58732734,6.36602465\W,-6.8925723,-0.548130
 99,6.3429936\W,-6.77010585,-0.27355783,11.60064781\W,-2.55901073,-2.74
 5733,11.62927372\O,-3.1193699,1.91738146,5.35479579\O,-6.14683213,-5.1
 01823,5.44221903\O,-2.64552179,1.72687784,12.53666224\O,-6.68031252,-4
 .72168984,12.63503138\O,-2.65607188,-0.90537917,5.58723062\O,-6.685751
 87,-2.28297156,5.62295502\O,-5.26405897,0.53635903,12.36499157\O,-4.05
 559092,-3.55384313,12.40715667\O,0.35347587,-0.09629784,9.26519973\O,-
 9.70002007,-2.99071189,9.31885908\O,-6.38459332,3.4059794,8.68553242\O
 ,-2.96449922,-6.49378821,8.74533722\O,-1.74998571,0.72781408,7.4898789
 7\O,-7.60201601,-3.87946167,7.55409404\O,-4.47677288,2.19172607,10.423
 38189\O,-4.86011271,-5.24663262,10.51211262\O,-1.63039464,-3.5206066,5
 .20728656\O,-7.764239,0.25632822,5.14179483\O,-7.9816079,-0.17240898,1
 2.78598719\O,-1.32926961,-2.87549316,12.79491817\W,-1.21370875,-0.5951
 3457,8.83678748\W,-8.13344032,-2.50239725,8.87535897\W,-5.89232271,1.8
 3702038,9.05449501\W,-3.45607687,-4.92001599,9.15772409\O,-4.2211488,-
 3.12480492,6.06405738\O,-5.12106129,-0.05291236,6.01822299\O,-6.158628
 07,-2.02749636,11.92377034\O,-3.1503441,-0.99525492,11.92276413\O,-4.3
 3846521,1.58105818,7.85330655\O,-4.99901317,-4.70469571,7.92087519\O,-
 2.28421929,0.54730278,10.07349661\O,-7.05403934,-3.62310152,10.1305470
 1\O,-2.56606604,-3.91636528,7.85029671\O,-6.79334505,0.78191003,7.8014
 1391\O,-7.80565085,-1.17782973,10.16032223\O,-1.5382962,-1.89796446,10
 .14946813\O,-3.34240129,-1.16979536,8.01305946\O,-6.00211384,-1.968858
 39,8.03703302\O,-5.09266992,-0.22156397,9.94787361\O,-4.22961505,-2.85
 809659,9.97516387\K,-3.22683433,-6.15343664,5.64827997\K,-0.11889087,-
 0.03940937,12.32534442\K,-9.30096752,-2.82236114,12.39168341\V,-4.6687
 7302,-1.55038382,8.99051946\\Version=ES64L-G16RevC.01\HF=-7327.7023431
 \RMSD=1.976e-09\RMSF=5.783e-03\Dipole=10.0565966,-22.0835863,2.3426942
 \Quadrupole=-69.4409515,46.6631645,22.7777869,335.3973718,336.3639368,
 -357.9686327\PG=C01 [X(C8H8Cl1K3O40V1W12)]\\@
 The archive entry for this job was punched.


 ALMOST ANYTHING IS EASIER TO GET INTO THAN OUT OF.

                         -- AGNES ALLEN'S LAW FROM
                PAUL DICKSON'S "THE OFFICIAL RULES"
 Job cpu time:       0 days  9 hours 32 minutes 26.1 seconds.
 Elapsed time:       0 days  0 hours 10 minutes 50.9 seconds.
 File lengths (MBytes):  RWF=   1259 Int=      0 D2E=      0 Chk=    249 Scr=      1
 Normal termination of Gaussian 16 at Mon Jun  3 09:23:21 2024.
