 Entering Gaussian System, Link 0=g16
 Input=JOBS/76_B.gjf
 Output=JOBS/76_B.log
 Initial command:
 /data/app/gaussian/C01-avx2//g16/l1.exe "/tmp/Gau-726173.inp" -scrdir="/tmp/"
 Entering Link 1 = /data/app/gaussian/C01-avx2//g16/l1.exe PID=    726174.
  
 Copyright (c) 1988-2019, Gaussian, Inc.  All Rights Reserved.
  
 This is part of the Gaussian(R) 16 program.  It is based on
 the Gaussian(R) 09 system (copyright 2009, Gaussian, Inc.),
 the Gaussian(R) 03 system (copyright 2003, Gaussian, Inc.),
 the Gaussian(R) 98 system (copyright 1998, Gaussian, Inc.),
 the Gaussian(R) 94 system (copyright 1995, Gaussian, Inc.),
 the Gaussian 92(TM) system (copyright 1992, Gaussian, Inc.),
 the Gaussian 90(TM) system (copyright 1990, Gaussian, Inc.),
 the Gaussian 88(TM) system (copyright 1988, Gaussian, Inc.),
 the Gaussian 86(TM) system (copyright 1986, Carnegie Mellon
 University), and the Gaussian 82(TM) system (copyright 1983,
 Carnegie Mellon University). Gaussian is a federally registered
 trademark of Gaussian, Inc.
  
 This software contains proprietary and confidential information,
 including trade secrets, belonging to Gaussian, Inc.
  
 This software is provided under written license and may be
 used, copied, transmitted, or stored only in accord with that
 written license.
  
 The following legend is applicable only to US Government
 contracts under FAR:
  
                    RESTRICTED RIGHTS LEGEND
  
 Use, reproduction and disclosure by the US Government is
 subject to restrictions as set forth in subparagraphs (a)
 and (c) of the Commercial Computer Software - Restricted
 Rights clause in FAR 52.227-19.
  
 Gaussian, Inc.
 340 Quinnipiac St., Bldg. 40, Wallingford CT 06492
  
  
 ---------------------------------------------------------------
 Warning -- This program may not be used in any manner that
 competes with the business of Gaussian, Inc. or will provide
 assistance to any competitor of Gaussian, Inc.  The licensee
 of this program is prohibited from giving any competitor of
 Gaussian, Inc. access to this program.  By using this program,
 the user acknowledges that Gaussian, Inc. is engaged in the
 business of creating and licensing software in the field of
 computational chemistry and represents and warrants to the
 licensee that it is not a competitor of Gaussian, Inc. and that
 it will not use this program in any manner prohibited above.
 ---------------------------------------------------------------
  

 Cite this work as:
 Gaussian 16, Revision C.01,
 M. J. Frisch, G. W. Trucks, H. B. Schlegel, G. E. Scuseria, 
 M. A. Robb, J. R. Cheeseman, G. Scalmani, V. Barone, 
 G. A. Petersson, H. Nakatsuji, X. Li, M. Caricato, A. V. Marenich, 
 J. Bloino, B. G. Janesko, R. Gomperts, B. Mennucci, H. P. Hratchian, 
 J. V. Ortiz, A. F. Izmaylov, J. L. Sonnenberg, D. Williams-Young, 
 F. Ding, F. Lipparini, F. Egidi, J. Goings, B. Peng, A. Petrone, 
 T. Henderson, D. Ranasinghe, V. G. Zakrzewski, J. Gao, N. Rega, 
 G. Zheng, W. Liang, M. Hada, M. Ehara, K. Toyota, R. Fukuda, 
 J. Hasegawa, M. Ishida, T. Nakajima, Y. Honda, O. Kitao, H. Nakai, 
 T. Vreven, K. Throssell, J. A. Montgomery, Jr., J. E. Peralta, 
 F. Ogliaro, M. J. Bearpark, J. J. Heyd, E. N. Brothers, K. N. Kudin, 
 V. N. Staroverov, T. A. Keith, R. Kobayashi, J. Normand, 
 K. Raghavachari, A. P. Rendell, J. C. Burant, S. S. Iyengar, 
 J. Tomasi, M. Cossi, J. M. Millam, M. Klene, C. Adamo, R. Cammi, 
 J. W. Ochterski, R. L. Martin, K. Morokuma, O. Farkas, 
 J. B. Foresman, and D. J. Fox, Gaussian, Inc., Wallingford CT, 2019.
 
 ******************************************
 Gaussian 16:  ES64L-G16RevC.01  3-Jul-2019
                 3-Jun-2024 
 ******************************************
 %chk=b.chk
 %nprocshared=56
 Will use up to   56 processors via shared memory.
 %mem=96gb
 ----------------------------------------------------------------------
 # def2svp wb97xd scrf=(smd,solvent=acetonitrile) g09default scf=(xqc,m
 axcycle=64) force guess=read nosymm
 ----------------------------------------------------------------------
 1/10=7,30=1,38=1,158=3,167=1/1,3;
 2/12=2,15=1,17=6,18=5,40=1/2;
 3/5=43,7=101,11=2,25=1,27=10,30=1,70=32201,71=1,72=2,74=-58,75=-4,116=-2,158=3/1,2,3;
 4/5=1,60=-1/1;
 5/5=2,7=64,8=3,13=1,38=6,53=2,87=10/2,8;
 6/7=2,8=2,9=2,10=2,28=1,87=10/1;
 7/29=1,30=1,87=10/1,2,3,16;
 1/10=7,30=1,158=3,167=1/3;
 99//99;
 Using 2006 physical constants.
 ----------
 Title Card
 ----------
 Symbolic Z-matrix:
 Charge = -1 Multiplicity = 1
 17                   -9.72022   8.2845    10.54219 
 6                    -8.40529   4.30572   12.19666 
 6                    -9.22213   3.98609   11.09564 
 6                    -10.12034   2.9105    11.22904 
 6                    -10.20971   2.19366   12.41917 
 6                    -9.39316   2.52592   13.50108 
 6                    -8.48889   3.58362   13.38228 
 1                    -7.69664   5.13348   12.12781 
 1                    -10.76383   2.64369   10.38579 
 1                    -10.92273   1.37004   12.50566 
 1                    -9.45091   1.95598   14.43078 
 1                    -7.84726   3.85412   14.22445 
 6                    -9.1836    4.74685   9.84442 
 6                    -8.44483   5.85325   9.61859 
 1                    -9.83904   4.37919   9.04676 
 1                    -8.46626   6.35643   8.65156 
 1                    -7.73801   6.24417   10.35138 
 8                    -0.97261  -1.83039   7.44919 
 8                    -8.37094  -1.31796   7.45815 
 8                    -7.00385   1.32604   10.4955 
 8                    -2.32221  -4.40107   10.55628 
 74                   -3.36777   0.7179    6.51558 
 74                   -5.99967  -3.85119   6.58257 
 74                   -3.57225   0.88176   11.39021 
 74                   -5.77056  -3.90273   11.45888 
 74                   -2.45274  -2.58733   6.36602 
 74                   -6.89257  -0.54813   6.34299 
 74                   -6.77011  -0.27356   11.60065 
 74                   -2.55901  -2.74573   11.62927 
 8                    -3.11937   1.91738   5.3548 
 8                    -6.14683  -5.10182   5.44222 
 8                    -2.64552   1.72688   12.53666 
 8                    -6.68031  -4.72169   12.63503 
 8                    -2.65607  -0.90538   5.58723 
 8                    -6.68575  -2.28297   5.62296 
 8                    -5.26406   0.53636   12.36499 
 8                    -4.05559  -3.55384   12.40716 
 8                     0.35348  -0.0963    9.2652 
 8                    -9.70002  -2.99071   9.31886 
 8                    -6.38459   3.40598   8.68553 
 8                    -2.9645   -6.49379   8.74534 
 8                    -1.74999   0.72781   7.48988 
 8                    -7.60202  -3.87946   7.55409 
 8                    -4.47677   2.19173   10.42338 
 8                    -4.86011  -5.24663   10.51211 
 8                    -1.63039  -3.52061   5.20729 
 8                    -7.76424   0.25633   5.14179 
 8                    -7.98161  -0.17241   12.78599 
 8                    -1.32927  -2.87549   12.79492 
 74                   -1.21371  -0.59513   8.83679 
 74                   -8.13344  -2.5024    8.87536 
 74                   -5.89232   1.83702   9.0545 
 74                   -3.45608  -4.92002   9.15772 
 8                    -4.22115  -3.1248    6.06406 
 8                    -5.12106  -0.05291   6.01822 
 8                    -6.15863  -2.0275    11.92377 
 8                    -3.15034  -0.99525   11.92276 
 8                    -4.33847   1.58106   7.85331 
 8                    -4.99901  -4.7047    7.92088 
 8                    -2.28422   0.5473    10.0735 
 8                    -7.05404  -3.6231    10.13055 
 8                    -2.56607  -3.91637   7.8503 
 8                    -6.79335   0.78191   7.80141 
 8                    -7.80565  -1.17783   10.16032 
 8                    -1.5383   -1.89796   10.14947 
 8                    -3.3424   -1.1698    8.01306 
 8                    -6.00211  -1.96886   8.03703 
 8                    -5.09267  -0.22156   9.94787 
 8                    -4.22962  -2.8581    9.97516 
 19                   -3.22683  -6.15344   5.64828 
 19                   -0.11889  -0.03941   12.32534 
 19                   -9.30097  -2.82236   12.39168 
 23                   -4.66877  -1.55038   8.99052 
 

 GradGradGradGradGradGradGradGradGradGradGradGradGradGradGradGradGradGrad
 Berny optimization.
 Initialization pass.
 Trust Radius=3.00D-01 FncErr=1.00D-07 GrdErr=1.00D-07 EigMax=2.50D+02 EigMin=1.00D-04
 Number of steps in this run=      2 maximum allowed number of steps=      2.
 GradGradGradGradGradGradGradGradGradGradGradGradGradGradGradGradGradGrad

 Symmetry turned off by external request.
 Stoichiometry    C8H8ClK3O40VW12(1-)
 Framework group  C1[X(C8H8ClK3O40VW12)]
 Deg. of freedom   213
 Full point group                 C1      NOp   1
                          Input orientation:                          
 ---------------------------------------------------------------------
 Center     Atomic      Atomic             Coordinates (Angstroms)
 Number     Number       Type             X           Y           Z
 ---------------------------------------------------------------------
      1         17           0       -9.720219    8.284500   10.542190
      2          6           0       -8.405294    4.305720   12.196663
      3          6           0       -9.222132    3.986087   11.095642
      4          6           0      -10.120339    2.910499   11.229045
      5          6           0      -10.209711    2.193658   12.419170
      6          6           0       -9.393163    2.525920   13.501081
      7          6           0       -8.488887    3.583622   13.382277
      8          1           0       -7.696636    5.133480   12.127813
      9          1           0      -10.763833    2.643687   10.385794
     10          1           0      -10.922728    1.370043   12.505661
     11          1           0       -9.450915    1.955976   14.430784
     12          1           0       -7.847262    3.854119   14.224454
     13          6           0       -9.183603    4.746849    9.844424
     14          6           0       -8.444831    5.853253    9.618588
     15          1           0       -9.839043    4.379186    9.046761
     16          1           0       -8.466264    6.356427    8.651557
     17          1           0       -7.738013    6.244174   10.351380
     18          8           0       -0.972606   -1.830391    7.449192
     19          8           0       -8.370936   -1.317960    7.458151
     20          8           0       -7.003846    1.326042   10.495499
     21          8           0       -2.322206   -4.401067   10.556276
     22         74           0       -3.367767    0.717903    6.515584
     23         74           0       -5.999666   -3.851189    6.582569
     24         74           0       -3.572246    0.881763   11.390209
     25         74           0       -5.770561   -3.902735   11.458884
     26         74           0       -2.452745   -2.587327    6.366025
     27         74           0       -6.892572   -0.548131    6.342994
     28         74           0       -6.770106   -0.273558   11.600648
     29         74           0       -2.559011   -2.745733   11.629274
     30          8           0       -3.119370    1.917381    5.354796
     31          8           0       -6.146832   -5.101823    5.442219
     32          8           0       -2.645522    1.726878   12.536662
     33          8           0       -6.680313   -4.721690   12.635031
     34          8           0       -2.656072   -0.905379    5.587231
     35          8           0       -6.685752   -2.282972    5.622955
     36          8           0       -5.264059    0.536359   12.364992
     37          8           0       -4.055591   -3.553843   12.407157
     38          8           0        0.353476   -0.096298    9.265200
     39          8           0       -9.700020   -2.990712    9.318859
     40          8           0       -6.384593    3.405979    8.685532
     41          8           0       -2.964499   -6.493788    8.745337
     42          8           0       -1.749986    0.727814    7.489879
     43          8           0       -7.602016   -3.879462    7.554094
     44          8           0       -4.476773    2.191726   10.423382
     45          8           0       -4.860113   -5.246633   10.512113
     46          8           0       -1.630395   -3.520607    5.207287
     47          8           0       -7.764239    0.256328    5.141795
     48          8           0       -7.981608   -0.172409   12.785987
     49          8           0       -1.329270   -2.875493   12.794918
     50         74           0       -1.213709   -0.595135    8.836787
     51         74           0       -8.133440   -2.502397    8.875359
     52         74           0       -5.892323    1.837020    9.054495
     53         74           0       -3.456077   -4.920016    9.157724
     54          8           0       -4.221149   -3.124805    6.064057
     55          8           0       -5.121061   -0.052912    6.018223
     56          8           0       -6.158628   -2.027496   11.923770
     57          8           0       -3.150344   -0.995255   11.922764
     58          8           0       -4.338465    1.581058    7.853307
     59          8           0       -4.999013   -4.704696    7.920875
     60          8           0       -2.284219    0.547303   10.073497
     61          8           0       -7.054039   -3.623102   10.130547
     62          8           0       -2.566066   -3.916365    7.850297
     63          8           0       -6.793345    0.781910    7.801414
     64          8           0       -7.805651   -1.177830   10.160322
     65          8           0       -1.538296   -1.897964   10.149468
     66          8           0       -3.342401   -1.169795    8.013059
     67          8           0       -6.002114   -1.968858    8.037033
     68          8           0       -5.092670   -0.221564    9.947874
     69          8           0       -4.229615   -2.858097    9.975164
     70         19           0       -3.226834   -6.153437    5.648280
     71         19           0       -0.118891   -0.039409   12.325344
     72         19           0       -9.300968   -2.822361   12.391683
     73         23           0       -4.668773   -1.550384    8.990519
 ---------------------------------------------------------------------
 Rotational constants (GHZ):           0.0171963           0.0131663           0.0129466
 Standard basis: def2SVP (5D, 7F)
  1217 basis functions,  2313 primitive gaussians,  1337 cartesian basis functions
   321 alpha electrons      321 beta electrons
       nuclear repulsion energy     20952.1640162299 Hartrees.
 NAtoms=   73 NActive=   73 NUniq=   73 SFac= 1.00D+00 NAtFMM=   60 NAOKFM=T Big=T
 Integral buffers will be    131072 words long.
 Raffenetti 2 integral format.
 Two-electron integral symmetry is turned off.
 Nuclear repulsion after empirical dispersion term =    20951.8880618426 Hartrees.
 Force PCM accuracy= 1.00D-10.
 ------------------------------------------------------------------------------
 Polarizable Continuum Model (PCM)
 =================================
 Model                : PCM (using non-symmetric T matrix).
 Atomic radii         : SMD-Coulomb.
 Polarization charges : Total charges.
 Charge compensation  : None.
 Solution method      : On-the-fly selection.
 Cavity type          : VdW (van der Waals Surface) (Alpha=1.000).
 Cavity algorithm     : GePol (No added spheres)
                        Default sphere list used, NSphG=   73.
                        Lebedev-Laikov grids with approx.  5.0 points / Ang**2.
                        Smoothing algorithm: York/Karplus (Gamma=1.0000).
                        Polarization charges: spherical gaussians, with
                                              point-specific exponents (IZeta= 3).
                        Self-potential: point-specific (ISelfS= 7).
                        Self-field    : sphere-specific E.n sum rule (ISelfD= 2).
 1st derivatives      : Analytical E(r).r(x)/FMM algorithm (CHGder, D1EAlg=3).
                        Cavity 1st derivative terms included.
 Solvent              : Acetonitrile, Eps=  35.688000 Eps(inf)=   1.806874
 ------------------------------------------------------------------------------
 ------------------------------------------------------------------------------
 Atomic radii for non-electrostatic terms: SMD-CDS.
 ------------------------------------------------------------------------------
 Nuclear repulsion after PCM non-electrostatic terms =    20951.8822598547 Hartrees.
 One-electron integrals computed using PRISM.
   1 Symmetry operations used in ECPInt.
 ECPInt:  NShTT=  127765 NPrTT=  468030 LenC2=   96364 LenP2D=  220487.
 LDataN:  DoStor=T MaxTD1= 8 Len=  415
 NBasis=  1217 RedAO= T EigKep=  1.38D-04  NBF=  1217
 NBsUse=  1217 1.00D-06 EigRej= -1.00D+00 NBFU=  1217
 Defaulting to unpruned grid for atomic number  74.
 Defaulting to unpruned grid for atomic number  74.
 Defaulting to unpruned grid for atomic number  74.
 Defaulting to unpruned grid for atomic number  74.
 Defaulting to unpruned grid for atomic number  74.
 Defaulting to unpruned grid for atomic number  74.
 Defaulting to unpruned grid for atomic number  74.
 Defaulting to unpruned grid for atomic number  74.
 Initial guess from the checkpoint file:  "b.chk"
 B after Tr=     0.000426    0.000468    0.000264
         Rot=    1.000000   -0.000038   -0.000006    0.000020 Ang=  -0.00 deg.
 Initial guess <Sx>= 0.0000 <Sy>= 0.0000 <Sz>= 0.0000 <S**2>= 1.0216 S= 0.6277
 Requested convergence on RMS density matrix=1.00D-08 within  64 cycles.
 Requested convergence on MAX density matrix=1.00D-06.
 Requested convergence on             energy=1.00D-06.
 No special actions if energy rises.
 Defaulting to unpruned grid for atomic number  74.
 Defaulting to unpruned grid for atomic number  74.
 Defaulting to unpruned grid for atomic number  74.
 Defaulting to unpruned grid for atomic number  74.
 Defaulting to unpruned grid for atomic number  74.
 Defaulting to unpruned grid for atomic number  74.
 Defaulting to unpruned grid for atomic number  74.
 Defaulting to unpruned grid for atomic number  74.
 Defaulting to unpruned grid for atomic number  74.
 Defaulting to unpruned grid for atomic number  74.
 Defaulting to unpruned grid for atomic number  74.
 Defaulting to unpruned grid for atomic number  74.
 Defaulting to unpruned grid for atomic number  74.
 Defaulting to unpruned grid for atomic number  74.
 Defaulting to unpruned grid for atomic number  74.
 Defaulting to unpruned grid for atomic number  74.
 Defaulting to unpruned grid for atomic number  74.
 Defaulting to unpruned grid for atomic number  74.
 Defaulting to unpruned grid for atomic number  74.
 Defaulting to unpruned grid for atomic number  74.
 Defaulting to unpruned grid for atomic number  74.
 Defaulting to unpruned grid for atomic number  74.
 Defaulting to unpruned grid for atomic number  74.
 Defaulting to unpruned grid for atomic number  74.
 Defaulting to unpruned grid for atomic number  74.
 Defaulting to unpruned grid for atomic number  74.
 Defaulting to unpruned grid for atomic number  74.
 Defaulting to unpruned grid for atomic number  74.
 Defaulting to unpruned grid for atomic number  74.
 Defaulting to unpruned grid for atomic number  74.
 Defaulting to unpruned grid for atomic number  74.
 Defaulting to unpruned grid for atomic number  74.
 Defaulting to unpruned grid for atomic number  74.
 Defaulting to unpruned grid for atomic number  74.
 Defaulting to unpruned grid for atomic number  74.
 Defaulting to unpruned grid for atomic number  74.
 Defaulting to unpruned grid for atomic number  74.
 Defaulting to unpruned grid for atomic number  74.
 Defaulting to unpruned grid for atomic number  74.
 Defaulting to unpruned grid for atomic number  74.
 Defaulting to unpruned grid for atomic number  74.
 Defaulting to unpruned grid for atomic number  74.
 Defaulting to unpruned grid for atomic number  74.
 Defaulting to unpruned grid for atomic number  74.
 Defaulting to unpruned grid for atomic number  74.
 Defaulting to unpruned grid for atomic number  74.
 Defaulting to unpruned grid for atomic number  74.
 Defaulting to unpruned grid for atomic number  74.
 Defaulting to unpruned grid for atomic number  74.
 Defaulting to unpruned grid for atomic number  74.
 Defaulting to unpruned grid for atomic number  74.
 Defaulting to unpruned grid for atomic number  74.
 Defaulting to unpruned grid for atomic number  74.
 Defaulting to unpruned grid for atomic number  74.
 Defaulting to unpruned grid for atomic number  74.
 Defaulting to unpruned grid for atomic number  74.
 Inv3:  Mode=1 IEnd=    87869232.
 Iteration    1 A*A^-1 deviation from unit magnitude is 4.00D-15 for   1914.
 Iteration    1 A*A^-1 deviation from orthogonality  is 3.75D-15 for    517    206.
 Iteration    1 A^-1*A deviation from unit magnitude is 3.44D-15 for   2716.
 Iteration    1 A^-1*A deviation from orthogonality  is 2.08D-11 for   4051   4027.
 Restarting incremental Fock formation.
 Error on total polarization charges =  0.01574
 SCF Done:  E(UwB97XD) =  -7327.70232940     A.U. after   32 cycles
            NFock= 32  Conv=0.19D-08     -V/T= 2.0831
 <Sx>= 0.0000 <Sy>= 0.0000 <Sz>= 0.0000 <S**2>= 1.0215 S= 0.6276
 <L.S>=  0.00000000000    
 SMD-CDS (non-electrostatic) energy       (kcal/mol) =      -3.64
 (included in total energy above)
 Annihilation of the first spin contaminant:
 S**2 before annihilation     1.0215,   after     0.1723
 QCSCF skips out because SCF is already converged.

 **********************************************************************

            Population analysis using the SCF Density.

 **********************************************************************

 Alpha  occ. eigenvalues -- -197.10758-129.99109-129.99108-129.99026-101.62123
 Alpha  occ. eigenvalues --  -22.44434 -19.28506 -19.28503 -19.28446 -19.28435
 Alpha  occ. eigenvalues --  -19.28386 -19.28377 -19.28365 -19.28352 -19.28323
 Alpha  occ. eigenvalues --  -19.28265 -19.28226 -19.28153 -19.26991 -19.26963
 Alpha  occ. eigenvalues --  -19.26950 -19.26930 -19.26924 -19.26914 -19.26878
 Alpha  occ. eigenvalues --  -19.26871 -19.26869 -19.26856 -19.26855 -19.26849
 Alpha  occ. eigenvalues --  -19.26841 -19.26840 -19.26833 -19.26814 -19.26814
 Alpha  occ. eigenvalues --  -19.26800 -19.26796 -19.26784 -19.26774 -19.26736
 Alpha  occ. eigenvalues --  -19.26688 -19.26650 -19.24747 -19.24701 -19.24675
 Alpha  occ. eigenvalues --  -19.24661 -18.94009 -18.92923 -18.92881 -13.36516
 Alpha  occ. eigenvalues --  -13.36508 -13.36429 -10.69443 -10.69439 -10.69438
 Alpha  occ. eigenvalues --  -10.69437 -10.69432 -10.69427 -10.69357 -10.69352
 Alpha  occ. eigenvalues --  -10.69352 -10.33086 -10.32333 -10.32035 -10.31051
 Alpha  occ. eigenvalues --  -10.31019 -10.31014 -10.30580 -10.30553  -9.52528
 Alpha  occ. eigenvalues --   -7.27414  -7.27069  -7.27066  -3.21075  -3.21062
 Alpha  occ. eigenvalues --   -3.21043  -3.21004  -3.21003  -3.20993  -3.20983
 Alpha  occ. eigenvalues --   -3.20974  -3.20961  -3.20834  -3.20824  -3.20797
 Alpha  occ. eigenvalues --   -2.78752  -1.85321  -1.85271  -1.85262  -1.85222
 Alpha  occ. eigenvalues --   -1.85122  -1.85062  -1.85048  -1.85020  -1.85008
 Alpha  occ. eigenvalues --   -1.84997  -1.84978  -1.84925  -1.84378  -1.84264
 Alpha  occ. eigenvalues --   -1.84256  -1.84236  -1.84199  -1.84189  -1.84134
 Alpha  occ. eigenvalues --   -1.84107  -1.84086  -1.84073  -1.84045  -1.84038
 Alpha  occ. eigenvalues --   -1.83933  -1.83898  -1.83872  -1.83866  -1.83842
 Alpha  occ. eigenvalues --   -1.83807  -1.83779  -1.83771  -1.83762  -1.83670
 Alpha  occ. eigenvalues --   -1.83663  -1.83646  -1.81920  -1.81583  -1.81562
 Alpha  occ. eigenvalues --   -1.50218  -1.50214  -1.50140  -1.08608  -1.06985
 Alpha  occ. eigenvalues --   -1.06946  -1.06907  -1.05992  -1.05986  -1.05963
 Alpha  occ. eigenvalues --   -1.04568  -1.04560  -1.04552  -1.03940  -1.03934
 Alpha  occ. eigenvalues --   -1.03690  -1.03341  -1.03314  -1.03292  -1.03058
 Alpha  occ. eigenvalues --   -1.03044  -1.02248  -1.02222  -1.02216  -1.02095
 Alpha  occ. eigenvalues --   -1.02027  -1.02003  -1.01911  -1.01900  -1.01800
 Alpha  occ. eigenvalues --   -1.01763  -1.01743  -1.01610  -1.01579  -1.01566
 Alpha  occ. eigenvalues --   -1.01307  -1.00823  -1.00796  -1.00747  -1.00741
 Alpha  occ. eigenvalues --   -0.99989  -0.99929  -0.99871  -0.96226  -0.89350
 Alpha  occ. eigenvalues --   -0.85663  -0.85658  -0.85592  -0.85521  -0.85506
 Alpha  occ. eigenvalues --   -0.85505  -0.85476  -0.85434  -0.85427  -0.84303
 Alpha  occ. eigenvalues --   -0.82494  -0.80999  -0.71948  -0.69663  -0.65127
 Alpha  occ. eigenvalues --   -0.62283  -0.61674  -0.61618  -0.61592  -0.60703
 Alpha  occ. eigenvalues --   -0.58968  -0.58941  -0.58932  -0.58894  -0.58823
 Alpha  occ. eigenvalues --   -0.58732  -0.58706  -0.58669  -0.58537  -0.57349
 Alpha  occ. eigenvalues --   -0.57316  -0.57281  -0.56995  -0.56797  -0.56480
 Alpha  occ. eigenvalues --   -0.56436  -0.56394  -0.56001  -0.55847  -0.55364
 Alpha  occ. eigenvalues --   -0.55356  -0.55318  -0.54428  -0.54198  -0.54173
 Alpha  occ. eigenvalues --   -0.54019  -0.53643  -0.53588  -0.53573  -0.52792
 Alpha  occ. eigenvalues --   -0.52655  -0.52596  -0.52484  -0.52451  -0.51491
 Alpha  occ. eigenvalues --   -0.51479  -0.51469  -0.51386  -0.51329  -0.50819
 Alpha  occ. eigenvalues --   -0.50556  -0.50532  -0.50482  -0.50391  -0.50336
 Alpha  occ. eigenvalues --   -0.50280  -0.50096  -0.50053  -0.50035  -0.49783
 Alpha  occ. eigenvalues --   -0.49684  -0.49654  -0.49506  -0.49484  -0.49301
 Alpha  occ. eigenvalues --   -0.49257  -0.49193  -0.49081  -0.49020  -0.48953
 Alpha  occ. eigenvalues --   -0.48728  -0.48553  -0.48533  -0.48481  -0.47743
 Alpha  occ. eigenvalues --   -0.47718  -0.47249  -0.46486  -0.46049  -0.46030
 Alpha  occ. eigenvalues --   -0.45881  -0.45869  -0.45759  -0.45632  -0.45218
 Alpha  occ. eigenvalues --   -0.45141  -0.45131  -0.44875  -0.44696  -0.44522
 Alpha  occ. eigenvalues --   -0.44489  -0.44460  -0.44283  -0.44272  -0.44256
 Alpha  occ. eigenvalues --   -0.43411  -0.43185  -0.42573  -0.42542  -0.42476
 Alpha  occ. eigenvalues --   -0.42308  -0.42175  -0.42160  -0.42155  -0.41636
 Alpha  occ. eigenvalues --   -0.41619  -0.41579  -0.41040  -0.40998  -0.40800
 Alpha  occ. eigenvalues --   -0.40779  -0.40774  -0.40447  -0.40438  -0.40405
 Alpha  occ. eigenvalues --   -0.40233  -0.40205  -0.40188  -0.40146  -0.39887
 Alpha  occ. eigenvalues --   -0.39361  -0.39284  -0.39269  -0.39176  -0.39056
 Alpha  occ. eigenvalues --   -0.38983  -0.38951  -0.38864  -0.38765  -0.38726
 Alpha  occ. eigenvalues --   -0.38348  -0.38323  -0.38290  -0.38186  -0.37211
 Alpha  occ. eigenvalues --   -0.37193  -0.34719  -0.34689  -0.33702  -0.30506
 Alpha  occ. eigenvalues --   -0.25709
 Alpha virt. eigenvalues --   -0.11972  -0.06148  -0.06102  -0.04694  -0.04650
 Alpha virt. eigenvalues --   -0.04537  -0.01519  -0.01381  -0.01320  -0.01074
 Alpha virt. eigenvalues --   -0.00903  -0.00871  -0.00833  -0.00149  -0.00077
 Alpha virt. eigenvalues --   -0.00045   0.00700   0.00724   0.00754   0.00927
 Alpha virt. eigenvalues --    0.01035   0.01215   0.01825   0.01877   0.01933
 Alpha virt. eigenvalues --    0.02484   0.02716   0.02785   0.02848   0.03520
 Alpha virt. eigenvalues --    0.03568   0.03735   0.03847   0.03960   0.04303
 Alpha virt. eigenvalues --    0.04337   0.04344   0.04376   0.04611   0.05034
 Alpha virt. eigenvalues --    0.05101   0.05961   0.06459   0.07979   0.08203
 Alpha virt. eigenvalues --    0.08440   0.08588   0.08783   0.08863   0.09302
 Alpha virt. eigenvalues --    0.09699   0.09819   0.09844   0.09910   0.09988
 Alpha virt. eigenvalues --    0.10008   0.10169   0.10334   0.10880   0.10960
 Alpha virt. eigenvalues --    0.11547   0.11605   0.11894   0.12126   0.12188
 Alpha virt. eigenvalues --    0.12396   0.12412   0.12461   0.12829   0.13291
 Alpha virt. eigenvalues --    0.13405   0.13581   0.14063   0.14272   0.14725
 Alpha virt. eigenvalues --    0.14902   0.14947   0.15192   0.15342   0.15843
 Alpha virt. eigenvalues --    0.16062   0.16768   0.17043   0.17624   0.17913
 Alpha virt. eigenvalues --    0.18271   0.18404   0.18551   0.18712   0.18909
 Alpha virt. eigenvalues --    0.19222   0.19332   0.19454   0.19508   0.19546
 Alpha virt. eigenvalues --    0.19661   0.19822   0.19999   0.20610   0.20878
 Alpha virt. eigenvalues --    0.21071   0.21270   0.21279   0.21516   0.21556
 Alpha virt. eigenvalues --    0.21629   0.21856   0.21899   0.22045   0.22180
 Alpha virt. eigenvalues --    0.22379   0.22681   0.23085   0.23117   0.23239
 Alpha virt. eigenvalues --    0.23286   0.23438   0.23753   0.24001   0.24280
 Alpha virt. eigenvalues --    0.24457   0.24623   0.24701   0.25002   0.25050
 Alpha virt. eigenvalues --    0.25358   0.25538   0.25560   0.26162   0.26800
 Alpha virt. eigenvalues --    0.26847   0.27120   0.27293   0.27659   0.27828
 Alpha virt. eigenvalues --    0.27988   0.28474   0.28683   0.28772   0.29175
 Alpha virt. eigenvalues --    0.29223   0.29253   0.29356   0.29518   0.29701
 Alpha virt. eigenvalues --    0.30081   0.30391   0.30695   0.31238   0.31503
 Alpha virt. eigenvalues --    0.31791   0.32218   0.32305   0.32750   0.33082
 Alpha virt. eigenvalues --    0.33594   0.34355   0.35336   0.37012   0.37048
 Alpha virt. eigenvalues --    0.38223   0.38616   0.38986   0.39281   0.39464
 Alpha virt. eigenvalues --    0.40337   0.41362   0.41718   0.41836   0.41934
 Alpha virt. eigenvalues --    0.42168   0.42430   0.42581   0.43386   0.43943
 Alpha virt. eigenvalues --    0.44187   0.44377   0.44829   0.45250   0.45398
 Alpha virt. eigenvalues --    0.45514   0.45672   0.45877   0.46401   0.46692
 Alpha virt. eigenvalues --    0.46872   0.47161   0.47755   0.47838   0.48131
 Alpha virt. eigenvalues --    0.48260   0.48389   0.48698   0.49009   0.49037
 Alpha virt. eigenvalues --    0.49480   0.49743   0.49852   0.49955   0.50034
 Alpha virt. eigenvalues --    0.50153   0.50348   0.50552   0.50717   0.50795
 Alpha virt. eigenvalues --    0.51196   0.51271   0.51658   0.51741   0.52003
 Alpha virt. eigenvalues --    0.52469   0.52623   0.52882   0.52949   0.53283
 Alpha virt. eigenvalues --    0.53802   0.53965   0.54192   0.54438   0.54572
 Alpha virt. eigenvalues --    0.54692   0.55450   0.55956   0.55998   0.56443
 Alpha virt. eigenvalues --    0.56631   0.56762   0.57047   0.57142   0.57651
 Alpha virt. eigenvalues --    0.58289   0.58754   0.58952   0.59291   0.59502
 Alpha virt. eigenvalues --    0.59929   0.60481   0.60746   0.61095   0.61604
 Alpha virt. eigenvalues --    0.61887   0.62753   0.63615   0.63968   0.64639
 Alpha virt. eigenvalues --    0.65025   0.65403   0.66427   0.66602   0.66660
 Alpha virt. eigenvalues --    0.67853   0.68220   0.68295   0.68788   0.69292
 Alpha virt. eigenvalues --    0.69351   0.69939   0.71106   0.71562   0.71634
 Alpha virt. eigenvalues --    0.72051   0.72344   0.72627   0.72917   0.73139
 Alpha virt. eigenvalues --    0.73210   0.73411   0.73512   0.73678   0.73905
 Alpha virt. eigenvalues --    0.73983   0.74148   0.75092   0.75511   0.75740
 Alpha virt. eigenvalues --    0.76011   0.76829   0.76928   0.77992   0.78212
 Alpha virt. eigenvalues --    0.78853   0.79434   0.79915   0.80254   0.80586
 Alpha virt. eigenvalues --    0.80743   0.81055   0.81833   0.81997   0.82254
 Alpha virt. eigenvalues --    0.82977   0.83374   0.83878   0.83938   0.84401
 Alpha virt. eigenvalues --    0.84503   0.84879   0.85308   0.86480   0.87064
 Alpha virt. eigenvalues --    0.88217   0.88271   0.89083   0.89403   0.89951
 Alpha virt. eigenvalues --    0.90205   0.90520   0.90723   0.91100   0.91672
 Alpha virt. eigenvalues --    0.91726   0.92170   0.92448   0.92597   0.92806
 Alpha virt. eigenvalues --    0.93017   0.93121   0.93400   0.93563   0.94381
 Alpha virt. eigenvalues --    0.94731   0.95195   0.95600   0.96682   0.97141
 Alpha virt. eigenvalues --    0.97268   0.97356   0.97534   0.98013   0.98507
 Alpha virt. eigenvalues --    0.99254   0.99439   0.99613   0.99872   1.00338
 Alpha virt. eigenvalues --    1.00413   1.00490   1.00664   1.00842   1.01014
 Alpha virt. eigenvalues --    1.01185   1.01238   1.01717   1.02165   1.02450
 Alpha virt. eigenvalues --    1.02575   1.02807   1.03344   1.03621   1.03812
 Alpha virt. eigenvalues --    1.03959   1.04173   1.04698   1.04819   1.04953
 Alpha virt. eigenvalues --    1.05207   1.05435   1.05547   1.05901   1.06662
 Alpha virt. eigenvalues --    1.06979   1.07108   1.07377   1.07502   1.07600
 Alpha virt. eigenvalues --    1.07882   1.07991   1.08236   1.08482   1.08796
 Alpha virt. eigenvalues --    1.09006   1.09203   1.09473   1.10289   1.10886
 Alpha virt. eigenvalues --    1.11097   1.11338   1.11857   1.12176   1.12333
 Alpha virt. eigenvalues --    1.12453   1.12939   1.13085   1.13204   1.13315
 Alpha virt. eigenvalues --    1.13474   1.13726   1.13821   1.14081   1.14308
 Alpha virt. eigenvalues --    1.14597   1.14696   1.15300   1.15420   1.16049
 Alpha virt. eigenvalues --    1.16341   1.17077   1.17531   1.17799   1.18486
 Alpha virt. eigenvalues --    1.18856   1.19555   1.19856   1.19991   1.20248
 Alpha virt. eigenvalues --    1.20950   1.22306   1.22783   1.22927   1.22943
 Alpha virt. eigenvalues --    1.23106   1.23326   1.23643   1.24478   1.24509
 Alpha virt. eigenvalues --    1.25718   1.25969   1.27009   1.27306   1.27557
 Alpha virt. eigenvalues --    1.28069   1.28716   1.29514   1.29839   1.30181
 Alpha virt. eigenvalues --    1.30477   1.30714   1.30765   1.30984   1.31536
 Alpha virt. eigenvalues --    1.31707   1.31967   1.32134   1.32257   1.32361
 Alpha virt. eigenvalues --    1.32527   1.32707   1.33041   1.33097   1.34164
 Alpha virt. eigenvalues --    1.34686   1.34710   1.34876   1.35365   1.35439
 Alpha virt. eigenvalues --    1.35563   1.35857   1.36080   1.36255   1.36461
 Alpha virt. eigenvalues --    1.36679   1.36814   1.37716   1.37871   1.38066
 Alpha virt. eigenvalues --    1.38117   1.38390   1.38648   1.38716   1.38877
 Alpha virt. eigenvalues --    1.39025   1.39304   1.39398   1.39555   1.39634
 Alpha virt. eigenvalues --    1.40115   1.40170   1.40409   1.40645   1.40909
 Alpha virt. eigenvalues --    1.41078   1.41128   1.41304   1.41696   1.41820
 Alpha virt. eigenvalues --    1.42112   1.42267   1.42485   1.42548   1.42704
 Alpha virt. eigenvalues --    1.43058   1.43289   1.43574   1.43642   1.43975
 Alpha virt. eigenvalues --    1.44326   1.44398   1.44553   1.45244   1.45279
 Alpha virt. eigenvalues --    1.45548   1.45639   1.46031   1.46522   1.46875
 Alpha virt. eigenvalues --    1.47711   1.48113   1.49495   1.49672   1.49772
 Alpha virt. eigenvalues --    1.50220   1.50406   1.51823   1.52400   1.52435
 Alpha virt. eigenvalues --    1.52507   1.52925   1.53280   1.53686   1.54929
 Alpha virt. eigenvalues --    1.55231   1.57490   1.57965   1.58032   1.58175
 Alpha virt. eigenvalues --    1.58406   1.58777   1.59010   1.59386   1.59978
 Alpha virt. eigenvalues --    1.60519   1.60881   1.61186   1.61575   1.61850
 Alpha virt. eigenvalues --    1.61902   1.62026   1.62567   1.63093   1.63943
 Alpha virt. eigenvalues --    1.64519   1.64711   1.64883   1.65342   1.65559
 Alpha virt. eigenvalues --    1.65944   1.66605   1.67918   1.68240   1.69695
 Alpha virt. eigenvalues --    1.70359   1.70778   1.71281   1.72206   1.73115
 Alpha virt. eigenvalues --    1.73259   1.73389   1.74009   1.74198   1.74804
 Alpha virt. eigenvalues --    1.75615   1.76233   1.77406   1.77538   1.77767
 Alpha virt. eigenvalues --    1.78155   1.78224   1.78839   1.78988   1.79369
 Alpha virt. eigenvalues --    1.79677   1.80715   1.80913   1.81093   1.81473
 Alpha virt. eigenvalues --    1.81853   1.82726   1.83572   1.83853   1.83980
 Alpha virt. eigenvalues --    1.84419   1.84843   1.85041   1.85364   1.85775
 Alpha virt. eigenvalues --    1.85957   1.86419   1.86678   1.87175   1.87535
 Alpha virt. eigenvalues --    1.88162   1.88273   1.88603   1.88858   1.89127
 Alpha virt. eigenvalues --    1.89364   1.90202   1.91264   1.92143   1.92703
 Alpha virt. eigenvalues --    1.93148   1.93182   1.93743   1.93877   1.94678
 Alpha virt. eigenvalues --    1.96031   1.96386   1.97632   1.97811   1.98180
 Alpha virt. eigenvalues --    1.98447   2.01508   2.01836   2.01985   2.02372
 Alpha virt. eigenvalues --    2.04689   2.05108   2.07012   2.07857   2.08369
 Alpha virt. eigenvalues --    2.10571   2.10812   2.11303   2.12457   2.13015
 Alpha virt. eigenvalues --    2.13487   2.14612   2.14854   2.15406   2.17516
 Alpha virt. eigenvalues --    2.18181   2.18667   2.18987   2.19183   2.20220
 Alpha virt. eigenvalues --    2.20606   2.20737   2.21580   2.24376   2.26106
 Alpha virt. eigenvalues --    2.26173   2.26695   2.27125   2.28428   2.29550
 Alpha virt. eigenvalues --    2.29862   2.30324   2.31317   2.32180   2.32575
 Alpha virt. eigenvalues --    2.33002   2.33495   2.33637   2.34319   2.34417
 Alpha virt. eigenvalues --    2.34716   2.38636   2.39480   2.41530   2.42726
 Alpha virt. eigenvalues --    2.42887   2.48012   2.49220   2.54472   2.65021
 Alpha virt. eigenvalues --    2.66788   2.67139   2.67147   2.67300   2.68209
 Alpha virt. eigenvalues --    2.68418   2.69119   2.69186   2.69216   2.69569
 Alpha virt. eigenvalues --    2.69598   2.69705   2.69791   2.69860   2.70053
 Alpha virt. eigenvalues --    2.70073   2.70093   2.70476   2.70620   2.70724
 Alpha virt. eigenvalues --    2.70776   2.70833   2.70891   2.71306   2.71544
 Alpha virt. eigenvalues --    2.71669   2.72042   2.72714   2.72739   2.72920
 Alpha virt. eigenvalues --    2.73139   2.73227   2.73522   2.73629   2.73680
 Alpha virt. eigenvalues --    2.73778   2.74131   2.74202   2.74231   2.75267
 Alpha virt. eigenvalues --    2.75418   2.75484   2.75582   2.75609   2.75662
 Alpha virt. eigenvalues --    2.75803   2.75839   2.76042   2.76092   2.76151
 Alpha virt. eigenvalues --    2.76247   2.76406   2.76526   2.76865   2.77344
 Alpha virt. eigenvalues --    2.77429   2.77587   2.77956   2.78215   2.78517
 Alpha virt. eigenvalues --    2.78669   2.79051   2.79375   2.79540   2.79619
 Alpha virt. eigenvalues --    2.79716   2.79755   2.79975   2.80220   2.81122
 Alpha virt. eigenvalues --    2.82070   2.82338   2.82462   2.82631   2.82765
 Alpha virt. eigenvalues --    2.82946   2.83014   2.83428   2.83781   2.84662
 Alpha virt. eigenvalues --    2.84697   2.85051   2.85272   2.85466   2.85718
 Alpha virt. eigenvalues --    2.85908   2.86108   2.86486   2.87154   2.87366
 Alpha virt. eigenvalues --    2.87645   2.88414   2.88664   2.88817   2.88841
 Alpha virt. eigenvalues --    2.88937   2.89221   2.89252   2.89316   2.89885
 Alpha virt. eigenvalues --    2.90853   2.90973   2.91991   2.92047   2.92124
 Alpha virt. eigenvalues --    2.92572   2.92635   2.92667   2.93037   2.93098
 Alpha virt. eigenvalues --    2.93633   2.93848   2.94363   2.94526   2.94683
 Alpha virt. eigenvalues --    2.94747   2.94794   2.95010   2.95290   2.95676
 Alpha virt. eigenvalues --    2.95903   2.95994   2.96113   2.96316   2.96356
 Alpha virt. eigenvalues --    2.96577   2.96741   2.96832   2.97209   2.97404
 Alpha virt. eigenvalues --    2.97544   2.98069   2.98221   2.98284   2.98911
 Alpha virt. eigenvalues --    2.99040   2.99063   2.99448   2.99576   2.99710
 Alpha virt. eigenvalues --    2.99863   3.00196   3.00369   3.00671   3.00763
 Alpha virt. eigenvalues --    3.01336   3.01503   3.01960   3.02344   3.02451
 Alpha virt. eigenvalues --    3.02637   3.02892   3.03362   3.04043   3.06898
 Alpha virt. eigenvalues --    3.08336   3.08514   3.08569   3.08721   3.08976
 Alpha virt. eigenvalues --    3.09782   3.10028   3.10093   3.10188   3.13705
 Alpha virt. eigenvalues --    3.13796   3.13820   3.14640   3.14845   3.15072
 Alpha virt. eigenvalues --    3.16402   3.16476   3.16732   3.22191   3.27823
 Alpha virt. eigenvalues --    3.29496   3.29607   3.30138   3.42613   3.43071
 Alpha virt. eigenvalues --    3.43507   3.44467   3.45517   3.46200   3.46345
 Alpha virt. eigenvalues --    3.47342   3.47666   3.47837   3.48807   3.48940
 Alpha virt. eigenvalues --    3.49385   3.52896   3.53672   3.54187   3.55296
 Alpha virt. eigenvalues --    3.55543   3.56115   3.56569   3.57028   3.57233
 Alpha virt. eigenvalues --    3.57374   3.57426   3.57666   3.58235   3.59380
 Alpha virt. eigenvalues --    3.59534   3.60694   3.61304   3.61568   3.62061
 Alpha virt. eigenvalues --    3.62640   3.63167   3.63526   3.63853   3.64357
 Alpha virt. eigenvalues --    3.73024   3.77408  68.66910  68.67829  68.68938
 Alpha virt. eigenvalues --   68.71086  68.74868  68.76093  68.83744  68.84644
 Alpha virt. eigenvalues --   68.85147  68.88040  68.89169  68.90185 576.25353
 Alpha virt. eigenvalues --  576.26251 576.27340 576.29435 576.33233 576.34434
 Alpha virt. eigenvalues --  576.41940 576.42824 576.43306 576.46107 576.47209
 Alpha virt. eigenvalues --  576.48214
  Beta  occ. eigenvalues -- -197.10741-129.99109-129.99108-129.99026-101.62525
  Beta  occ. eigenvalues --  -22.43172 -19.28507 -19.28504 -19.28448 -19.28431
  Beta  occ. eigenvalues --  -19.28380 -19.28371 -19.28359 -19.28346 -19.28317
  Beta  occ. eigenvalues --  -19.28267 -19.28228 -19.28147 -19.26992 -19.26962
  Beta  occ. eigenvalues --  -19.26950 -19.26930 -19.26923 -19.26913 -19.26877
  Beta  occ. eigenvalues --  -19.26871 -19.26869 -19.26857 -19.26855 -19.26849
  Beta  occ. eigenvalues --  -19.26841 -19.26841 -19.26833 -19.26816 -19.26813
  Beta  occ. eigenvalues --  -19.26801 -19.26800 -19.26784 -19.26774 -19.26735
  Beta  occ. eigenvalues --  -19.26687 -19.26650 -19.24724 -19.24682 -19.24650
  Beta  occ. eigenvalues --  -19.24636 -18.93664 -18.91481 -18.91399 -13.36516
  Beta  occ. eigenvalues --  -13.36508 -13.36429 -10.69443 -10.69439 -10.69438
  Beta  occ. eigenvalues --  -10.69437 -10.69432 -10.69427 -10.69357 -10.69352
  Beta  occ. eigenvalues --  -10.69352 -10.33369 -10.32449 -10.31982 -10.31151
  Beta  occ. eigenvalues --  -10.31140 -10.31121 -10.30521 -10.30493  -9.52978
  Beta  occ. eigenvalues --   -7.28827  -7.27377  -7.27374  -3.21069  -3.21060
  Beta  occ. eigenvalues --   -3.21043  -3.21003  -3.20997  -3.20987  -3.20977
  Beta  occ. eigenvalues --   -3.20968  -3.20955  -3.20833  -3.20820  -3.20791
  Beta  occ. eigenvalues --   -2.74692  -1.85315  -1.85266  -1.85257  -1.85214
  Beta  occ. eigenvalues --   -1.85117  -1.85056  -1.85043  -1.85014  -1.84999
  Beta  occ. eigenvalues --   -1.84988  -1.84972  -1.84917  -1.84375  -1.84262
  Beta  occ. eigenvalues --   -1.84253  -1.84234  -1.84196  -1.84186  -1.84131
  Beta  occ. eigenvalues --   -1.84105  -1.84083  -1.84071  -1.84041  -1.84035
  Beta  occ. eigenvalues --   -1.83930  -1.83894  -1.83869  -1.83863  -1.83839
  Beta  occ. eigenvalues --   -1.83805  -1.83776  -1.83768  -1.83758  -1.83668
  Beta  occ. eigenvalues --   -1.83660  -1.83643  -1.80583  -1.75916  -1.75738
  Beta  occ. eigenvalues --   -1.50218  -1.50214  -1.50140  -1.08591  -1.06964
  Beta  occ. eigenvalues --   -1.06926  -1.06880  -1.05989  -1.05984  -1.05961
  Beta  occ. eigenvalues --   -1.04569  -1.04561  -1.04551  -1.03940  -1.03935
  Beta  occ. eigenvalues --   -1.03623  -1.03308  -1.03276  -1.03261  -1.03056
  Beta  occ. eigenvalues --   -1.03035  -1.02229  -1.02203  -1.02193  -1.02088
  Beta  occ. eigenvalues --   -1.02023  -1.01990  -1.01906  -1.01886  -1.01795
  Beta  occ. eigenvalues --   -1.01761  -1.01739  -1.01604  -1.01576  -1.01550
  Beta  occ. eigenvalues --   -1.01307  -1.00813  -1.00768  -1.00747  -1.00737
  Beta  occ. eigenvalues --   -0.99852  -0.99788  -0.99750  -0.96454  -0.90026
  Beta  occ. eigenvalues --   -0.85663  -0.85658  -0.85592  -0.85521  -0.85506
  Beta  occ. eigenvalues --   -0.85505  -0.85476  -0.85434  -0.85427  -0.84613
  Beta  occ. eigenvalues --   -0.84377  -0.82727  -0.72205  -0.69785  -0.65373
  Beta  occ. eigenvalues --   -0.62283  -0.61674  -0.61618  -0.61592  -0.60906
  Beta  occ. eigenvalues --   -0.58962  -0.58939  -0.58931  -0.58806  -0.58750
  Beta  occ. eigenvalues --   -0.58716  -0.58693  -0.58650  -0.58537  -0.57328
  Beta  occ. eigenvalues --   -0.57159  -0.57113  -0.57015  -0.56910  -0.56482
  Beta  occ. eigenvalues --   -0.56405  -0.56359  -0.55802  -0.55591  -0.55343
  Beta  occ. eigenvalues --   -0.55335  -0.55320  -0.54617  -0.54186  -0.54163
  Beta  occ. eigenvalues --   -0.54005  -0.53611  -0.53570  -0.53529  -0.52860
  Beta  occ. eigenvalues --   -0.52656  -0.52583  -0.52463  -0.52446  -0.51476
  Beta  occ. eigenvalues --   -0.51452  -0.51450  -0.51326  -0.51270  -0.51013
  Beta  occ. eigenvalues --   -0.50544  -0.50467  -0.50456  -0.50334  -0.50240
  Beta  occ. eigenvalues --   -0.50170  -0.50063  -0.50053  -0.50005  -0.49731
  Beta  occ. eigenvalues --   -0.49663  -0.49622  -0.49496  -0.49474  -0.49299
  Beta  occ. eigenvalues --   -0.49233  -0.49192  -0.49044  -0.49000  -0.48928
  Beta  occ. eigenvalues --   -0.48719  -0.48552  -0.48528  -0.48473  -0.47933
  Beta  occ. eigenvalues --   -0.47699  -0.47664  -0.46054  -0.45902  -0.45871
  Beta  occ. eigenvalues --   -0.45804  -0.45676  -0.45572  -0.45217  -0.45161
  Beta  occ. eigenvalues --   -0.45139  -0.45056  -0.44874  -0.44694  -0.44497
  Beta  occ. eigenvalues --   -0.44478  -0.44423  -0.44274  -0.44234  -0.44216
  Beta  occ. eigenvalues --   -0.43405  -0.43288  -0.42524  -0.42485  -0.42440
  Beta  occ. eigenvalues --   -0.42258  -0.42239  -0.42131  -0.42114  -0.41659
  Beta  occ. eigenvalues --   -0.41613  -0.41559  -0.41470  -0.41043  -0.40965
  Beta  occ. eigenvalues --   -0.40770  -0.40736  -0.40712  -0.40432  -0.40426
  Beta  occ. eigenvalues --   -0.40389  -0.40187  -0.40176  -0.40158  -0.39830
  Beta  occ. eigenvalues --   -0.39668  -0.39358  -0.39189  -0.39137  -0.39136
  Beta  occ. eigenvalues --   -0.38950  -0.38923  -0.38866  -0.38744  -0.38715
  Beta  occ. eigenvalues --   -0.38676  -0.38340  -0.38315  -0.38281  -0.37727
  Beta  occ. eigenvalues --   -0.37212  -0.37188  -0.35657  -0.35625  -0.33987
  Beta  occ. eigenvalues --   -0.30893
  Beta virt. eigenvalues --   -0.06147  -0.06102  -0.04693  -0.04649  -0.04536
  Beta virt. eigenvalues --   -0.01515  -0.01376  -0.01314  -0.01068  -0.00898
  Beta virt. eigenvalues --   -0.00867  -0.00828  -0.00140  -0.00066  -0.00036
  Beta virt. eigenvalues --    0.00710   0.00735   0.00765   0.00933   0.01035
  Beta virt. eigenvalues --    0.01522   0.01886   0.01911   0.01951   0.02495
  Beta virt. eigenvalues --    0.02774   0.02834   0.02855   0.03503   0.03702
  Beta virt. eigenvalues --    0.03800   0.04036   0.04062   0.04311   0.04347
  Beta virt. eigenvalues --    0.04361   0.04400   0.04617   0.05036   0.05114
  Beta virt. eigenvalues --    0.05562   0.06482   0.07246   0.08472   0.08545
  Beta virt. eigenvalues --    0.08606   0.08646   0.09334   0.09460   0.09597
  Beta virt. eigenvalues --    0.09825   0.09894   0.10022   0.10028   0.10091
  Beta virt. eigenvalues --    0.10144   0.10336   0.10560   0.10892   0.10970
  Beta virt. eigenvalues --    0.11432   0.11584   0.11661   0.11912   0.12145
  Beta virt. eigenvalues --    0.12293   0.12418   0.12476   0.12498   0.13309
  Beta virt. eigenvalues --    0.13417   0.13588   0.14046   0.14266   0.14784
  Beta virt. eigenvalues --    0.14950   0.15038   0.15216   0.15346   0.15849
  Beta virt. eigenvalues --    0.16042   0.16718   0.17053   0.17616   0.17898
  Beta virt. eigenvalues --    0.18275   0.18403   0.18569   0.18738   0.18923
  Beta virt. eigenvalues --    0.19272   0.19367   0.19472   0.19546   0.19588
  Beta virt. eigenvalues --    0.19893   0.19981   0.20374   0.20622   0.20883
  Beta virt. eigenvalues --    0.21073   0.21260   0.21282   0.21524   0.21559
  Beta virt. eigenvalues --    0.21638   0.21879   0.21908   0.22056   0.22182
  Beta virt. eigenvalues --    0.22387   0.22686   0.23064   0.23107   0.23251
  Beta virt. eigenvalues --    0.23268   0.23449   0.23726   0.23980   0.24222
  Beta virt. eigenvalues --    0.24334   0.24616   0.24712   0.24956   0.25058
  Beta virt. eigenvalues --    0.25348   0.25507   0.25546   0.26049   0.26801
  Beta virt. eigenvalues --    0.26848   0.27116   0.27283   0.27630   0.27829
  Beta virt. eigenvalues --    0.27990   0.28453   0.28677   0.28772   0.29151
  Beta virt. eigenvalues --    0.29228   0.29258   0.29358   0.29523   0.29699
  Beta virt. eigenvalues --    0.30077   0.30383   0.30699   0.31244   0.31503
  Beta virt. eigenvalues --    0.31793   0.32223   0.32306   0.32753   0.33113
  Beta virt. eigenvalues --    0.33556   0.34355   0.35101   0.36991   0.37046
  Beta virt. eigenvalues --    0.38201   0.38743   0.38973   0.39315   0.39476
  Beta virt. eigenvalues --    0.40227   0.41369   0.41756   0.41907   0.42015
  Beta virt. eigenvalues --    0.42196   0.42449   0.42694   0.43417   0.44040
  Beta virt. eigenvalues --    0.44205   0.44457   0.44858   0.45209   0.45419
  Beta virt. eigenvalues --    0.45574   0.45718   0.45870   0.46400   0.46647
  Beta virt. eigenvalues --    0.46861   0.47138   0.47686   0.47837   0.48108
  Beta virt. eigenvalues --    0.48208   0.48306   0.48678   0.49001   0.49030
  Beta virt. eigenvalues --    0.49478   0.49702   0.49840   0.49853   0.50030
  Beta virt. eigenvalues --    0.50094   0.50342   0.50534   0.50703   0.50757
  Beta virt. eigenvalues --    0.51197   0.51265   0.51609   0.51736   0.51992
  Beta virt. eigenvalues --    0.52467   0.52555   0.52842   0.52933   0.53257
  Beta virt. eigenvalues --    0.53762   0.53939   0.54178   0.54430   0.54548
  Beta virt. eigenvalues --    0.54693   0.55405   0.55987   0.56056   0.56443
  Beta virt. eigenvalues --    0.56519   0.56742   0.57051   0.57142   0.57628
  Beta virt. eigenvalues --    0.58022   0.58765   0.58931   0.59086   0.59493
  Beta virt. eigenvalues --    0.59922   0.60514   0.60710   0.61036   0.61591
  Beta virt. eigenvalues --    0.61894   0.62679   0.63518   0.64146   0.64558
  Beta virt. eigenvalues --    0.65032   0.65227   0.66408   0.66591   0.66639
  Beta virt. eigenvalues --    0.67518   0.68157   0.68254   0.68761   0.69025
  Beta virt. eigenvalues --    0.69544   0.70074   0.70501   0.71311   0.71680
  Beta virt. eigenvalues --    0.71806   0.72282   0.72558   0.72815   0.73137
  Beta virt. eigenvalues --    0.73169   0.73364   0.73503   0.73629   0.73704
  Beta virt. eigenvalues --    0.73917   0.74025   0.74802   0.75331   0.75584
  Beta virt. eigenvalues --    0.76019   0.76885   0.76921   0.77844   0.78076
  Beta virt. eigenvalues --    0.78873   0.79409   0.79979   0.80546   0.80657
  Beta virt. eigenvalues --    0.81025   0.81166   0.81851   0.81991   0.82229
  Beta virt. eigenvalues --    0.82978   0.83334   0.83819   0.83908   0.84301
  Beta virt. eigenvalues --    0.84510   0.84865   0.85329   0.86432   0.87049
  Beta virt. eigenvalues --    0.87639   0.88187   0.88327   0.89269   0.89532
  Beta virt. eigenvalues --    0.89706   0.90230   0.90353   0.90830   0.90943
  Beta virt. eigenvalues --    0.91517   0.91694   0.91861   0.92201   0.92364
  Beta virt. eigenvalues --    0.92449   0.93050   0.93126   0.93291   0.93575
  Beta virt. eigenvalues --    0.94709   0.94945   0.95489   0.95784   0.96674
  Beta virt. eigenvalues --    0.97172   0.97303   0.97828   0.98029   0.98485
  Beta virt. eigenvalues --    0.99202   0.99338   0.99622   0.99748   1.00053
  Beta virt. eigenvalues --    1.00404   1.00474   1.00656   1.00842   1.01043
  Beta virt. eigenvalues --    1.01224   1.01274   1.01725   1.02151   1.02298
  Beta virt. eigenvalues --    1.02468   1.02626   1.03358   1.03620   1.03754
  Beta virt. eigenvalues --    1.03902   1.04176   1.04709   1.04833   1.04966
  Beta virt. eigenvalues --    1.05224   1.05475   1.05601   1.05919   1.06697
  Beta virt. eigenvalues --    1.07048   1.07135   1.07430   1.07562   1.07710
  Beta virt. eigenvalues --    1.07934   1.07997   1.08400   1.08779   1.08844
  Beta virt. eigenvalues --    1.09042   1.09355   1.09481   1.10302   1.10887
  Beta virt. eigenvalues --    1.11101   1.11345   1.11865   1.12187   1.12341
  Beta virt. eigenvalues --    1.12465   1.12935   1.13099   1.13210   1.13321
  Beta virt. eigenvalues --    1.13473   1.13742   1.13836   1.14089   1.14465
  Beta virt. eigenvalues --    1.14511   1.14733   1.15282   1.15414   1.16045
  Beta virt. eigenvalues --    1.16323   1.16912   1.17542   1.17804   1.18463
  Beta virt. eigenvalues --    1.18947   1.19562   1.19914   1.19998   1.20336
  Beta virt. eigenvalues --    1.21006   1.22309   1.22702   1.22930   1.22940
  Beta virt. eigenvalues --    1.23135   1.23169   1.23628   1.23748   1.24480
  Beta virt. eigenvalues --    1.25390   1.25587   1.27008   1.27245   1.27537
  Beta virt. eigenvalues --    1.28068   1.28727   1.29371   1.29849   1.30174
  Beta virt. eigenvalues --    1.30441   1.30710   1.30818   1.30973   1.31548
  Beta virt. eigenvalues --    1.31695   1.31839   1.32081   1.32229   1.32372
  Beta virt. eigenvalues --    1.32525   1.32645   1.32962   1.33047   1.33967
  Beta virt. eigenvalues --    1.34458   1.34709   1.34869   1.35349   1.35389
  Beta virt. eigenvalues --    1.35552   1.35825   1.35992   1.36237   1.36465
  Beta virt. eigenvalues --    1.36678   1.36794   1.37719   1.37894   1.38069
  Beta virt. eigenvalues --    1.38128   1.38398   1.38663   1.38709   1.38902
  Beta virt. eigenvalues --    1.38993   1.39259   1.39431   1.39560   1.39609
  Beta virt. eigenvalues --    1.40063   1.40168   1.40434   1.40668   1.40939
  Beta virt. eigenvalues --    1.41086   1.41146   1.41314   1.41691   1.41815
  Beta virt. eigenvalues --    1.42118   1.42249   1.42492   1.42546   1.42701
  Beta virt. eigenvalues --    1.43069   1.43282   1.43582   1.43656   1.43986
  Beta virt. eigenvalues --    1.44335   1.44364   1.44566   1.45257   1.45288
  Beta virt. eigenvalues --    1.45553   1.45626   1.46032   1.46592   1.46880
  Beta virt. eigenvalues --    1.47724   1.48120   1.49504   1.49682   1.49784
  Beta virt. eigenvalues --    1.50233   1.50422   1.51843   1.52409   1.52452
  Beta virt. eigenvalues --    1.52520   1.52941   1.53295   1.53707   1.54951
  Beta virt. eigenvalues --    1.55240   1.57496   1.57998   1.58053   1.58190
  Beta virt. eigenvalues --    1.58437   1.58793   1.59038   1.59422   1.59992
  Beta virt. eigenvalues --    1.60532   1.60900   1.61203   1.61580   1.61856
  Beta virt. eigenvalues --    1.61908   1.62035   1.62577   1.63085   1.64013
  Beta virt. eigenvalues --    1.64665   1.64840   1.65006   1.65463   1.65580
  Beta virt. eigenvalues --    1.66024   1.66685   1.68081   1.68320   1.69749
  Beta virt. eigenvalues --    1.70403   1.70811   1.71272   1.72013   1.73111
  Beta virt. eigenvalues --    1.73262   1.73414   1.74012   1.74237   1.74794
  Beta virt. eigenvalues --    1.75578   1.76152   1.77385   1.77545   1.77636
  Beta virt. eigenvalues --    1.78020   1.78171   1.78846   1.78986   1.79374
  Beta virt. eigenvalues --    1.79618   1.80713   1.80912   1.81098   1.81422
  Beta virt. eigenvalues --    1.81851   1.82621   1.83554   1.83819   1.83976
  Beta virt. eigenvalues --    1.84379   1.84808   1.85010   1.85378   1.85764
  Beta virt. eigenvalues --    1.85955   1.86461   1.86687   1.87183   1.87545
  Beta virt. eigenvalues --    1.88027   1.88202   1.88502   1.88758   1.89120
  Beta virt. eigenvalues --    1.89384   1.90226   1.91270   1.92039   1.92686
  Beta virt. eigenvalues --    1.93118   1.93221   1.93772   1.93872   1.94695
  Beta virt. eigenvalues --    1.96047   1.96318   1.97653   1.97861   1.98258
  Beta virt. eigenvalues --    1.98479   2.01446   2.01885   2.02070   2.02264
  Beta virt. eigenvalues --    2.04505   2.04990   2.06929   2.07455   2.08308
  Beta virt. eigenvalues --    2.10583   2.10831   2.11317   2.11782   2.13005
  Beta virt. eigenvalues --    2.13506   2.14633   2.14872   2.15461   2.17541
  Beta virt. eigenvalues --    2.17942   2.18622   2.19035   2.19065   2.20191
  Beta virt. eigenvalues --    2.20719   2.20919   2.21714   2.24299   2.26166
  Beta virt. eigenvalues --    2.26453   2.26894   2.27508   2.29183   2.29794
  Beta virt. eigenvalues --    2.30197   2.30566   2.31138   2.32578   2.33001
  Beta virt. eigenvalues --    2.33377   2.33999   2.34131   2.34748   2.35606
  Beta virt. eigenvalues --    2.36151   2.38337   2.39311   2.41422   2.42592
  Beta virt. eigenvalues --    2.42947   2.47499   2.48941   2.53862   2.64716
  Beta virt. eigenvalues --    2.66454   2.67133   2.67147   2.67278   2.68199
  Beta virt. eigenvalues --    2.68292   2.69119   2.69184   2.69211   2.69571
  Beta virt. eigenvalues --    2.69599   2.69708   2.69795   2.69861   2.70066
  Beta virt. eigenvalues --    2.70076   2.70114   2.70369   2.70640   2.70739
  Beta virt. eigenvalues --    2.70779   2.70852   2.70879   2.71301   2.71548
  Beta virt. eigenvalues --    2.71673   2.72043   2.72717   2.72744   2.72924
  Beta virt. eigenvalues --    2.73164   2.73248   2.73452   2.73528   2.73635
  Beta virt. eigenvalues --    2.73757   2.74137   2.74202   2.74234   2.75280
  Beta virt. eigenvalues --    2.75428   2.75488   2.75589   2.75615   2.75667
  Beta virt. eigenvalues --    2.75815   2.75848   2.76048   2.76098   2.76159
  Beta virt. eigenvalues --    2.76254   2.76411   2.76531   2.76867   2.77362
  Beta virt. eigenvalues --    2.77448   2.77620   2.77980   2.78242   2.78526
  Beta virt. eigenvalues --    2.78691   2.79050   2.79407   2.79555   2.79576
  Beta virt. eigenvalues --    2.79716   2.79762   2.79961   2.80229   2.81125
  Beta virt. eigenvalues --    2.82137   2.82360   2.82509   2.82644   2.82769
  Beta virt. eigenvalues --    2.82959   2.83047   2.83416   2.83775   2.84673
  Beta virt. eigenvalues --    2.84716   2.85077   2.85199   2.85356   2.85729
  Beta virt. eigenvalues --    2.85914   2.86108   2.86491   2.87182   2.87396
  Beta virt. eigenvalues --    2.87674   2.88423   2.88666   2.88822   2.88846
  Beta virt. eigenvalues --    2.88942   2.89243   2.89274   2.89321   2.89888
  Beta virt. eigenvalues --    2.90868   2.90995   2.92001   2.92055   2.92132
  Beta virt. eigenvalues --    2.92582   2.92641   2.92682   2.93070   2.93132
  Beta virt. eigenvalues --    2.93663   2.93849   2.94374   2.94510   2.94584
  Beta virt. eigenvalues --    2.94762   2.94804   2.94989   2.95286   2.95686
  Beta virt. eigenvalues --    2.95916   2.96018   2.96125   2.96323   2.96362
  Beta virt. eigenvalues --    2.96551   2.96700   2.96830   2.97220   2.97415
  Beta virt. eigenvalues --    2.97549   2.98087   2.98237   2.98293   2.98760
  Beta virt. eigenvalues --    2.98991   2.99063   2.99467   2.99610   2.99751
  Beta virt. eigenvalues --    2.99904   3.00212   3.00445   3.00731   3.00823
  Beta virt. eigenvalues --    3.01361   3.01518   3.01967   3.02361   3.02483
  Beta virt. eigenvalues --    3.02653   3.02908   3.03378   3.04056   3.06902
  Beta virt. eigenvalues --    3.08496   3.08526   3.08559   3.08714   3.08991
  Beta virt. eigenvalues --    3.09910   3.10341   3.10404   3.11073   3.13716
  Beta virt. eigenvalues --    3.13804   3.13828   3.14611   3.14762   3.15086
  Beta virt. eigenvalues --    3.16413   3.16489   3.16805   3.22124   3.28310
  Beta virt. eigenvalues --    3.29984   3.30649   3.30789   3.42618   3.43078
  Beta virt. eigenvalues --    3.43510   3.44471   3.45319   3.46205   3.46355
  Beta virt. eigenvalues --    3.47347   3.47668   3.47840   3.48810   3.48943
  Beta virt. eigenvalues --    3.49388   3.52901   3.53692   3.54205   3.55302
  Beta virt. eigenvalues --    3.55551   3.56127   3.56575   3.57041   3.57239
  Beta virt. eigenvalues --    3.57398   3.57461   3.57705   3.58250   3.59384
  Beta virt. eigenvalues --    3.59539   3.60715   3.61311   3.61574   3.62065
  Beta virt. eigenvalues --    3.62643   3.63172   3.63529   3.63857   3.64363
  Beta virt. eigenvalues --    3.72953   3.77640  68.66912  68.67830  68.68939
  Beta virt. eigenvalues --   68.71087  68.74869  68.76096  68.83745  68.84645
  Beta virt. eigenvalues --   68.85149  68.88042  68.89170  68.90187 576.25383
  Beta virt. eigenvalues --  576.26277 576.27367 576.29462 576.33252 576.34474
  Beta virt. eigenvalues --  576.41972 576.42844 576.43340 576.46140 576.47230
  Beta virt. eigenvalues --  576.48247
          Condensed to atoms (all electrons):
          Atomic-Atomic Spin Densities.
 Mulliken charges and spin densities:
               1          2
     1  Cl  -0.351203  -0.607558
     2  C   -0.036174  -0.097009
     3  C    0.009779   0.059893
     4  C   -0.035358  -0.092680
     5  C   -0.032532   0.058726
     6  C    0.008588  -0.115714
     7  C   -0.046536   0.059319
     8  H    0.049050   0.004166
     9  H    0.051209   0.003966
    10  H    0.056576  -0.002078
    11  H    0.057756   0.005078
    12  H    0.054360  -0.002077
    13  C    0.004427  -0.263602
    14  C   -0.036687  -0.020248
    15  H    0.075072   0.010855
    16  H    0.095264   0.000978
    17  H    0.090796  -0.000692
    18  O   -0.669488  -0.000553
    19  O   -0.667891  -0.000502
    20  O   -0.665098  -0.001362
    21  O   -0.670190  -0.000528
    22  W    1.711627   0.000355
    23  W    1.654087   0.000491
    24  W    1.667474   0.000171
    25  W    1.677113   0.000217
    26  W    1.657060   0.002762
    27  W    1.705774   0.002488
    28  W    1.604227   0.003318
    29  W    1.665672   0.002880
    30  O   -0.350217  -0.000527
    31  O   -0.393980  -0.000566
    32  O   -0.394449  -0.000620
    33  O   -0.386150  -0.000562
    34  O   -0.669594  -0.000318
    35  O   -0.676478  -0.000053
    36  O   -0.667794  -0.000164
    37  O   -0.670076  -0.000238
    38  O   -0.396343   0.002064
    39  O   -0.397143   0.002112
    40  O   -0.341278   0.000588
    41  O   -0.395176   0.002097
    42  O   -0.675877   0.000077
    43  O   -0.669915   0.000177
    44  O   -0.666045   0.000294
    45  O   -0.672768   0.000118
    46  O   -0.397151   0.002319
    47  O   -0.352402   0.002194
    48  O   -0.393541   0.001851
    49  O   -0.394858   0.002369
    50  W    1.653654   0.002810
    51  W    1.657965   0.002720
    52  W    1.675037   0.003751
    53  W    1.664585   0.002659
    54  O   -0.719690   0.000090
    55  O   -0.702961  -0.000000
    56  O   -0.720132   0.000125
    57  O   -0.718739   0.000058
    58  O   -0.700671   0.000082
    59  O   -0.721161   0.000160
    60  O   -0.719597   0.000214
    61  O   -0.715443   0.000204
    62  O   -0.720636  -0.000175
    63  O   -0.703294  -0.000057
    64  O   -0.722328  -0.000187
    65  O   -0.722614  -0.000201
    66  O   -0.882948   0.005225
    67  O   -0.882921   0.007336
    68  O   -0.880418   0.007284
    69  O   -0.887609   0.006640
    70  K    0.852182   0.000197
    71  K    0.849180   0.000225
    72  K    0.848704   0.000225
    73  V    1.196338   0.936344
 Sum of Mulliken charges =  -1.00000   0.00000
 Mulliken charges and spin densities with hydrogens summed into heavy atoms:
               1          2
     1  Cl  -0.351203  -0.607558
     2  C    0.012876  -0.092843
     3  C    0.009779   0.059893
     4  C    0.015851  -0.088714
     5  C    0.024044   0.056649
     6  C    0.066344  -0.110636
     7  C    0.007824   0.057241
    13  C    0.079499  -0.252747
    14  C    0.149373  -0.019962
    18  O   -0.669488  -0.000553
    19  O   -0.667891  -0.000502
    20  O   -0.665098  -0.001362
    21  O   -0.670190  -0.000528
    22  W    1.711627   0.000355
    23  W    1.654087   0.000491
    24  W    1.667474   0.000171
    25  W    1.677113   0.000217
    26  W    1.657060   0.002762
    27  W    1.705774   0.002488
    28  W    1.604227   0.003318
    29  W    1.665672   0.002880
    30  O   -0.350217  -0.000527
    31  O   -0.393980  -0.000566
    32  O   -0.394449  -0.000620
    33  O   -0.386150  -0.000562
    34  O   -0.669594  -0.000318
    35  O   -0.676478  -0.000053
    36  O   -0.667794  -0.000164
    37  O   -0.670076  -0.000238
    38  O   -0.396343   0.002064
    39  O   -0.397143   0.002112
    40  O   -0.341278   0.000588
    41  O   -0.395176   0.002097
    42  O   -0.675877   0.000077
    43  O   -0.669915   0.000177
    44  O   -0.666045   0.000294
    45  O   -0.672768   0.000118
    46  O   -0.397151   0.002319
    47  O   -0.352402   0.002194
    48  O   -0.393541   0.001851
    49  O   -0.394858   0.002369
    50  W    1.653654   0.002810
    51  W    1.657965   0.002720
    52  W    1.675037   0.003751
    53  W    1.664585   0.002659
    54  O   -0.719690   0.000090
    55  O   -0.702961  -0.000000
    56  O   -0.720132   0.000125
    57  O   -0.718739   0.000058
    58  O   -0.700671   0.000082
    59  O   -0.721161   0.000160
    60  O   -0.719597   0.000214
    61  O   -0.715443   0.000204
    62  O   -0.720636  -0.000175
    63  O   -0.703294  -0.000057
    64  O   -0.722328  -0.000187
    65  O   -0.722614  -0.000201
    66  O   -0.882948   0.005225
    67  O   -0.882921   0.007336
    68  O   -0.880418   0.007284
    69  O   -0.887609   0.006640
    70  K    0.852182   0.000197
    71  K    0.849180   0.000225
    72  K    0.848704   0.000225
    73  V    1.196338   0.936344
 Electronic spatial extent (au):  <R**2>=         317011.7182
 Charge=             -1.0000 electrons
 Dipole moment (field-independent basis, Debye):
    X=             27.8198    Y=            -13.8342    Z=            -30.8995  Tot=             43.8190
 Quadrupole moment (field-independent basis, Debye-Ang):
   XX=           -757.1506   YY=           -710.0779   ZZ=           -786.3135
   XY=            127.3273   XZ=            173.2871   YZ=            -94.7385
 Traceless Quadrupole moment (field-independent basis, Debye-Ang):
   XX=             -5.9699   YY=             41.1028   ZZ=            -35.1328
   XY=            127.3273   XZ=            173.2871   YZ=            -94.7385
 Octapole moment (field-independent basis, Debye-Ang**2):
  XXX=          10110.8386  YYY=            854.8461  ZZZ=         -17505.5804  XYY=           4127.2162
  XXY=           -599.1490  XXZ=          -6017.0632  XZZ=           4035.8728  YZZ=           -137.6066
  YYZ=          -7101.0458  XYZ=           1398.9264
 Hexadecapole moment (field-independent basis, Debye-Ang**3):
 XXXX=        -123973.7417 YYYY=         -41030.6422 ZZZZ=        -327142.2182 XXXY=           7737.9056
 XXXZ=          85785.3463 YYYX=           3243.5042 YYYZ=           7200.8153 ZZZX=          90030.7916
 ZZZY=           7811.2757 XXYY=         -36103.1119 XXZZ=         -69604.7400 YYZZ=         -79016.1118
 XXYZ=         -10360.6585 YYXZ=          40809.5537 ZZXY=          14375.9581
 N-N= 2.095188225985D+04 E-N=-5.901323990862D+04  KE= 6.765665927347D+03
                          Isotropic Fermi Contact Couplings
        Atom                 a.u.       MegaHertz       Gauss      10(-4) cm-1
     1  Cl(35)            -0.09758     -21.39341      -7.63370      -7.13607
     2  C(13)             -0.01530      -8.59969      -3.06858      -2.86855
     3  C(13)              0.01883      10.58238       3.77605       3.52990
     4  C(13)             -0.01468      -8.25040      -2.94395      -2.75204
     5  C(13)              0.01327       7.45864       2.66143       2.48793
     6  C(13)             -0.01873     -10.52561      -3.75580      -3.51097
     7  C(13)              0.01329       7.46955       2.66532       2.49157
     8  H(1)               0.00132       2.95822       1.05557       0.98676
     9  H(1)               0.00128       2.86471       1.02220       0.95557
    10  H(1)              -0.00061      -1.37075      -0.48912      -0.45723
    11  H(1)               0.00154       3.44400       1.22891       1.14880
    12  H(1)              -0.00061      -1.36514      -0.48712      -0.45536
    13  C(13)             -0.03692     -20.75208      -7.40486      -6.92215
    14  C(13)             -0.02406     -13.52633      -4.82653      -4.51190
    15  H(1)               0.00342       7.63590       2.72468       2.54706
    16  H(1)               0.00045       0.99598       0.35539       0.33222
    17  H(1)              -0.00060      -1.34735      -0.48077      -0.44943
    18  O(17)             -0.00044       0.13307       0.04748       0.04439
    19  O(17)             -0.00040       0.12057       0.04302       0.04022
    20  O(17)             -0.00133       0.40380       0.14409       0.13469
    21  O(17)             -0.00043       0.12919       0.04610       0.04309
    22  W(183)             0.00000       0.00000       0.00000       0.00000
    23  W(183)             0.00000       0.00000       0.00000       0.00000
    24  W(183)             0.00000       0.00000       0.00000       0.00000
    25  W(183)             0.00000       0.00000       0.00000       0.00000
    26  W(183)             0.00000       0.00000       0.00000       0.00000
    27  W(183)             0.00000       0.00000       0.00000       0.00000
    28  W(183)             0.00000       0.00000       0.00000       0.00000
    29  W(183)             0.00000       0.00000       0.00000       0.00000
    30  O(17)             -0.00020       0.05952       0.02124       0.01985
    31  O(17)             -0.00024       0.07161       0.02555       0.02389
    32  O(17)             -0.00026       0.07832       0.02795       0.02612
    33  O(17)             -0.00023       0.06833       0.02438       0.02279
    34  O(17)             -0.00005       0.01576       0.00562       0.00526
    35  O(17)              0.00014      -0.04129      -0.01473      -0.01377
    36  O(17)              0.00010      -0.03180      -0.01135      -0.01061
    37  O(17)              0.00003      -0.00951      -0.00340      -0.00317
    38  O(17)              0.00190      -0.57702      -0.20590      -0.19247
    39  O(17)              0.00189      -0.57309      -0.20449      -0.19116
    40  O(17)             -0.00378       1.14538       0.40870       0.38206
    41  O(17)              0.00188      -0.56895      -0.20302      -0.18978
    42  O(17)              0.00027      -0.08038      -0.02868      -0.02681
    43  O(17)              0.00033      -0.09982      -0.03562      -0.03330
    44  O(17)              0.00046      -0.14046      -0.05012      -0.04685
    45  O(17)              0.00030      -0.09049      -0.03229      -0.03019
    46  O(17)              0.00222      -0.67214      -0.23984      -0.22420
    47  O(17)              0.00197      -0.59841      -0.21353      -0.19961
    48  O(17)              0.00029      -0.08695      -0.03103      -0.02900
    49  O(17)              0.00222      -0.67427      -0.24060      -0.22491
    50  W(183)             0.00000       0.00000       0.00000       0.00000
    51  W(183)             0.00000       0.00000       0.00000       0.00000
    52  W(183)             0.00000       0.00000       0.00000       0.00000
    53  W(183)             0.00000       0.00000       0.00000       0.00000
    54  O(17)              0.00012      -0.03741      -0.01335      -0.01248
    55  O(17)              0.00001      -0.00163      -0.00058      -0.00054
    56  O(17)              0.00019      -0.05908      -0.02108      -0.01971
    57  O(17)              0.00004      -0.01216      -0.00434      -0.00406
    58  O(17)              0.00017      -0.05019      -0.01791      -0.01674
    59  O(17)              0.00029      -0.08788      -0.03136      -0.02931
    60  O(17)              0.00036      -0.10794      -0.03852      -0.03601
    61  O(17)              0.00035      -0.10547      -0.03763      -0.03518
    62  O(17)             -0.00026       0.07783       0.02777       0.02596
    63  O(17)             -0.00020       0.06080       0.02169       0.02028
    64  O(17)             -0.00028       0.08479       0.03026       0.02828
    65  O(17)             -0.00030       0.09094       0.03245       0.03033
    66  O(17)             -0.00809       2.45270       0.87519       0.81813
    67  O(17)             -0.00694       2.10313       0.75045       0.70153
    68  O(17)             -0.00702       2.12789       0.75928       0.70979
    69  O(17)             -0.00750       2.27316       0.81112       0.75824
    70  K(39)             -0.00002      -0.00196      -0.00070      -0.00065
    71  K(39)             -0.00002      -0.00191      -0.00068      -0.00064
    72  K(39)             -0.00002      -0.00234      -0.00083      -0.00078
    73  V(51)              0.07049      41.51482      14.81352      13.84785
 --------------------------------------------------------
       Center         ----  Spin Dipole Couplings  ----
                      3XX-RR        3YY-RR        3ZZ-RR
 --------------------------------------------------------
     1   Atom        1.225994     -2.543288      1.317294
     2   Atom       -0.019324     -0.010671      0.029996
     3   Atom        0.007020      0.002124     -0.009143
     4   Atom       -0.018253     -0.014378      0.032632
     5   Atom        0.012069      0.004691     -0.016761
     6   Atom       -0.023995     -0.011541      0.035536
     7   Atom        0.011846      0.003532     -0.015378
     8   Atom       -0.001528     -0.002388      0.003916
     9   Atom       -0.000379      0.000682     -0.000304
    10   Atom        0.001431      0.000667     -0.002098
    11   Atom        0.004439      0.000219     -0.004658
    12   Atom        0.000817     -0.000883      0.000065
    13   Atom       -0.101169      0.008087      0.093081
    14   Atom        0.007288     -0.046331      0.039044
    15   Atom       -0.003660      0.004553     -0.000893
    16   Atom        0.008547      0.000763     -0.009310
    17   Atom       -0.011759      0.002539      0.009221
    18   Atom        0.001355     -0.001331     -0.000025
    19   Atom        0.001896     -0.001809     -0.000086
    20   Atom       -0.001456     -0.000585      0.002040
    21   Atom       -0.000655      0.000683     -0.000028
    22   Atom       -0.001964      0.000635      0.001328
    23   Atom       -0.001795      0.000673      0.001122
    24   Atom       -0.002370      0.001064      0.001306
    25   Atom       -0.002052      0.000642      0.001411
    26   Atom        0.000287     -0.002249      0.001962
    27   Atom        0.000439     -0.002457      0.002017
    28   Atom        0.000803     -0.003068      0.002265
    29   Atom        0.000603     -0.002704      0.002101
    30   Atom       -0.000148      0.000333     -0.000186
    31   Atom        0.000027      0.000069     -0.000096
    32   Atom       -0.000447      0.000604     -0.000157
    33   Atom       -0.000128      0.000244     -0.000116
    34   Atom       -0.000043     -0.001928      0.001970
    35   Atom       -0.000349     -0.002608      0.002957
    36   Atom       -0.002226     -0.000472      0.002697
    37   Atom       -0.001882     -0.000600      0.002482
    38   Atom        0.005948     -0.002875     -0.003073
    39   Atom        0.006316     -0.003174     -0.003141
    40   Atom       -0.008639      0.008903     -0.000265
    41   Atom       -0.004521      0.007977     -0.003456
    42   Atom        0.002747     -0.001121     -0.001626
    43   Atom        0.003045     -0.001184     -0.001861
    44   Atom       -0.004464      0.005795     -0.001331
    45   Atom       -0.003404      0.005004     -0.001600
    46   Atom       -0.000595      0.000714     -0.000119
    47   Atom        0.001839     -0.002888      0.001049
    48   Atom        0.005580     -0.007800      0.002220
    49   Atom        0.005110     -0.004965     -0.000144
    50   Atom        0.006164     -0.002825     -0.003339
    51   Atom        0.006495     -0.003198     -0.003297
    52   Atom       -0.002262      0.005011     -0.002749
    53   Atom       -0.002102      0.005506     -0.003404
    54   Atom       -0.003117     -0.001698      0.004815
    55   Atom       -0.002908     -0.001891      0.004799
    56   Atom       -0.001150     -0.004367      0.005517
    57   Atom       -0.001185     -0.003761      0.004946
    58   Atom       -0.004002      0.006377     -0.002375
    59   Atom       -0.003906      0.006626     -0.002720
    60   Atom        0.002750     -0.000116     -0.002634
    61   Atom        0.002985     -0.000433     -0.002552
    62   Atom        0.000768      0.001029     -0.001797
    63   Atom        0.001059      0.000518     -0.001576
    64   Atom        0.005294     -0.003755     -0.001539
    65   Atom        0.004966     -0.003122     -0.001843
    66   Atom       -0.029391     -0.000077      0.029468
    67   Atom       -0.034350     -0.002591      0.036941
    68   Atom       -0.062179      0.022000      0.040179
    69   Atom       -0.057714      0.026428      0.031286
    70   Atom       -0.000584      0.000562      0.000021
    71   Atom        0.000464     -0.000553      0.000089
    72   Atom        0.000803     -0.001001      0.000197
    73   Atom       -1.002087      0.239034      0.763053
 --------------------------------------------------------
                        XY            XZ            YZ
 --------------------------------------------------------
     1   Atom        1.565579      0.518485     -1.435148
     2   Atom        0.061490      0.032711     -0.029848
     3   Atom       -0.018119     -0.008115      0.011447
     4   Atom        0.059369      0.028540     -0.027616
     5   Atom       -0.030019     -0.016957      0.015827
     6   Atom        0.074840      0.040187     -0.033436
     7   Atom       -0.030680     -0.015120      0.016899
     8   Atom       -0.002905     -0.001352      0.000284
     9   Atom       -0.002272     -0.004031     -0.003238
    10   Atom       -0.000409     -0.001587      0.000890
    11   Atom        0.002449      0.002143      0.006140
    12   Atom       -0.001305      0.000325      0.002510
    13   Atom        0.169892      0.107080     -0.077160
    14   Atom        0.069015      0.037753     -0.047984
    15   Atom       -0.004792     -0.011708     -0.014180
    16   Atom       -0.001155      0.009307      0.003299
    17   Atom       -0.001307     -0.008671     -0.001352
    18   Atom        0.000408     -0.001761      0.000253
    19   Atom        0.000357      0.002090     -0.000571
    20   Atom        0.002457      0.000122     -0.000149
    21   Atom       -0.001159      0.001362     -0.001385
    22   Atom        0.002248     -0.002009     -0.004086
    23   Atom        0.002219      0.002246      0.003893
    24   Atom        0.002344      0.001892      0.004181
    25   Atom        0.002034     -0.002028     -0.004099
    26   Atom       -0.002033     -0.004572      0.002452
    27   Atom       -0.001852      0.004715     -0.002760
    28   Atom       -0.001426     -0.004657      0.002586
    29   Atom       -0.001704      0.004765     -0.002277
    30   Atom        0.000393     -0.000178     -0.000589
    31   Atom        0.000449      0.000659      0.000289
    32   Atom        0.000481     -0.000117      0.000818
    33   Atom        0.000325     -0.000108     -0.000629
    34   Atom        0.000577     -0.003217     -0.000820
    35   Atom        0.000834      0.003962      0.001039
    36   Atom       -0.000311     -0.001696      0.003784
    37   Atom       -0.000598      0.001411     -0.003191
    38   Atom        0.004750      0.003601      0.001672
    39   Atom        0.004841     -0.003524     -0.001805
    40   Atom        0.004986      0.003106     -0.004380
    41   Atom       -0.002250     -0.000445      0.003575
    42   Atom        0.003903     -0.002642     -0.001909
    43   Atom        0.004177      0.002862      0.001850
    44   Atom        0.000290      0.000050      0.003993
    45   Atom       -0.000394      0.000047     -0.003578
    46   Atom       -0.004969     -0.004730      0.005106
[...]
                                 (Linear)    (Quad)   (Total)
    X1      -18.36855   0.00344   0.00000   0.00323   0.00117 -18.36738
    Y1       15.65544  -0.01233   0.00000  -0.01224  -0.01544  15.64000
    Z1       19.92185  -0.00344   0.00000  -0.00364  -0.00529  19.91657
    X2      -15.88370   0.00232   0.00000   0.00772   0.00688 -15.87682
    Y2        8.13663   0.00105   0.00000   0.01527   0.01278   8.14941
    Z2       23.04835   0.00261   0.00000   0.00685   0.00594  23.05429
    X3      -17.42730   0.00081   0.00000  -0.01486  -0.01566 -17.44297
    Y3        7.53261   0.00327   0.00000   0.03409   0.03114   7.56375
    Z3       20.96773  -0.00484   0.00000   0.01290   0.01209  20.97981
    X4      -19.12467  -0.00233   0.00000  -0.00272  -0.00321 -19.12788
    Y4        5.50005  -0.00260   0.00000   0.01232   0.00915   5.50919
    Z4       21.21982  -0.00053   0.00000  -0.01305  -0.01360  21.20622
    X5      -19.29356  -0.00125   0.00000   0.00249   0.00227 -19.29129
    Y5        4.14541   0.00012   0.00000   0.00211  -0.00086   4.14455
    Z5       23.46883  -0.00228   0.00000  -0.02322  -0.02363  23.44520
    X6      -17.75051   0.00018   0.00000   0.00157   0.00131 -17.74920
    Y6        4.77330   0.00048   0.00000   0.00466   0.00214   4.77544
    Z6       25.51335  -0.00125   0.00000  -0.02045  -0.02096  25.49238
    X7      -16.04167   0.00140   0.00000   0.00969   0.00911 -16.03256
    Y7        6.77207   0.00195   0.00000   0.00227  -0.00001   6.77206
    Z7       25.28884  -0.00065   0.00000  -0.00613  -0.00690  25.28194
    X8      -14.54453   0.00038   0.00000   0.01370   0.01262 -14.53192
    Y8        9.70087  -0.00041   0.00000   0.00864   0.00634   9.70721
    Z8       22.91825   0.00036   0.00000   0.01126   0.01015  22.92839
    X9      -20.34070   0.00042   0.00000   0.00319   0.00275 -20.33795
    Y9        4.99584   0.00010   0.00000   0.01352   0.00999   5.00583
    Z9       19.62631   0.00005   0.00000  -0.01627  -0.01674  19.60957
   X10      -20.64096   0.00059   0.00000   0.01134   0.01136 -20.62960
   Y10        2.58901   0.00009   0.00000  -0.00481  -0.00797   2.58104
   Z10       23.63227  -0.00054   0.00000  -0.02744  -0.02765  23.60463
   X11      -17.85964  -0.00035   0.00000  -0.00542  -0.00547 -17.86511
   Y11        3.69626   0.00033   0.00000   0.00403   0.00168   3.69794
   Z11       27.27023  -0.00018   0.00000  -0.02072  -0.02112  27.24911
   X12      -14.82918   0.00007   0.00000   0.01180   0.01119 -14.81798
   Y12        7.28323  -0.00041   0.00000  -0.01265  -0.01457   7.26866
   Z12       26.88032  -0.00039   0.00000  -0.00452  -0.00537  26.87495
   X13      -17.35450  -0.01301   0.00000  -0.05704  -0.05812 -17.41262
   Y13        8.97024  -0.01485   0.00000   0.07171   0.06853   9.03877
   Z13       18.60327   0.01156   0.00000   0.05301   0.05204  18.65530
   X14      -15.95842   0.00481   0.00000  -0.05062  -0.05204 -16.01046
   Y14       11.06105   0.02551   0.00000   0.10762   0.10460  11.16565
   Z14       18.17650   0.00018   0.00000   0.03967   0.03844  18.21494
   X15      -18.59310   0.00047   0.00000  -0.03103  -0.03205 -18.62514
   Y15        8.27546   0.00016   0.00000   0.04962   0.04609   8.32155
   Z15       17.09590   0.00034   0.00000   0.04112   0.04025  17.13615
   X16      -15.99892   0.00087   0.00000  -0.01599  -0.01760 -16.01652
   Y16       12.01191  -0.00198   0.00000   0.04037   0.03715  12.04906
   Z16       16.34907  -0.00183   0.00000   0.00289   0.00157  16.35064
   X17      -14.62273   0.00236   0.00000   0.01260   0.01111 -14.61162
   Y17       11.79978  -0.00142   0.00000   0.05691   0.05425  11.85403
   Z17       19.56127  -0.00027   0.00000   0.00559   0.00425  19.56553
   X18       -1.83796   0.00502   0.00000   0.02539   0.02609  -1.81187
   Y18       -3.45894  -0.00075   0.00000  -0.00115  -0.00244  -3.46138
   Z18       14.07693  -0.00126   0.00000  -0.01174  -0.01179  14.06514
   X19      -15.81878  -0.00497   0.00000  -0.02148  -0.02093 -15.83971
   Y19       -2.49058   0.00122   0.00000  -0.00586  -0.00929  -2.49987
   Z19       14.09386  -0.00145   0.00000  -0.01251  -0.01231  14.08156
   X20      -13.23535  -0.00394   0.00000  -0.01404  -0.01410 -13.24945
   Y20        2.50586   0.00434   0.00000   0.01632   0.01389   2.51975
   Z20       19.83362   0.00095   0.00000   0.00883   0.00844  19.84206
   X21       -4.38833   0.00363   0.00000   0.01560   0.01719  -4.37114
   Y21       -8.31681  -0.00354   0.00000  -0.02197  -0.02303  -8.33985
   Z21       19.94847   0.00144   0.00000   0.01293   0.01346  19.96193
   X22       -6.36416  -0.00273   0.00000   0.00927   0.00920  -6.35496
   Y22        1.35664  -0.01595   0.00000  -0.02544  -0.02760   1.32904
   Z22       12.31267   0.01464   0.00000   0.00874   0.00830  12.32097
   X23      -11.33773   0.00371   0.00000  -0.00803  -0.00679 -11.34452
   Y23       -7.27769   0.01526   0.00000   0.01075   0.00784  -7.26986
   Z23       12.43925   0.01497   0.00000   0.00868   0.00927  12.44852
   X24       -6.75057  -0.01003   0.00000  -0.02010  -0.01999  -6.77055
   Y24        1.66629  -0.01279   0.00000  -0.00304  -0.00430   1.66199
   Z24       21.52438  -0.01478   0.00000  -0.00917  -0.00964  21.51474
   X25      -10.90478   0.01073   0.00000   0.02287   0.02436 -10.88042
   Y25       -7.37510   0.01099   0.00000  -0.00418  -0.00606  -7.38116
   Z25       21.65415  -0.01531   0.00000  -0.00999  -0.00940  21.64476
   X26       -4.63502  -0.01214   0.00000   0.00532   0.00618  -4.62883
   Y26       -4.88934   0.01130   0.00000   0.01151   0.00958  -4.87976
   Z26       12.03004   0.01624   0.00000   0.01056   0.01073  12.04077
   X27      -13.02507   0.01215   0.00000   0.00115   0.00144 -13.02364
   Y27       -1.03582  -0.01196   0.00000  -0.02362  -0.02684  -1.06266
   Z27       11.98652   0.01599   0.00000   0.01249   0.01247  11.99899
   X28      -12.79365   0.01736   0.00000   0.01255   0.01300 -12.78064
   Y28       -0.51695  -0.00458   0.00000   0.00579   0.00365  -0.51330
   Z28       21.92205  -0.01636   0.00000  -0.01166  -0.01174  21.91031
   X29       -4.83583  -0.01635   0.00000  -0.01003  -0.00886  -4.84469
   Y29       -5.18868   0.00290   0.00000  -0.01376  -0.01468  -5.20336
   Z29       21.97614  -0.01620   0.00000  -0.00970  -0.00949  21.96665
   X30       -5.89475   0.00085   0.00000  -0.01381  -0.01429  -5.90904
   Y30        3.62333   0.00420   0.00000  -0.01340  -0.01573   3.60760
   Z30       10.11910  -0.00503   0.00000  -0.00181  -0.00250  10.11660
   X31      -11.61583  -0.00045   0.00000   0.01129   0.01284 -11.60299
   Y31       -9.64105  -0.00449   0.00000   0.00052  -0.00266  -9.64371
   Z31       10.28430  -0.00456   0.00000   0.00016   0.00101  10.28531
   X32       -4.99931   0.00349   0.00000  -0.00175  -0.00182  -5.00114
   Y32        3.26333   0.00308   0.00000  -0.01140  -0.01216   3.25116
   Z32       23.69086   0.00485   0.00000   0.00023  -0.00044  23.69042
   X33      -12.62396  -0.00343   0.00000   0.00392   0.00571 -12.61826
   Y33       -8.92270  -0.00291   0.00000   0.00419   0.00229  -8.92041
   Z33       23.87675   0.00476   0.00000  -0.00172  -0.00092  23.87583
   X34       -5.01925   0.00173   0.00000   0.01660   0.01694  -5.00231
   Y34       -1.71092   0.00105   0.00000  -0.00072  -0.00286  -1.71378
   Z34       10.55834  -0.00486   0.00000  -0.01628  -0.01644  10.54190
   X35      -12.63424  -0.00213   0.00000  -0.01453  -0.01379 -12.64803
   Y35       -4.31419  -0.00014   0.00000  -0.00946  -0.01277  -4.32696
   Z35       10.62585  -0.00501   0.00000  -0.01694  -0.01663  10.60922
   X36       -9.94763  -0.00105   0.00000  -0.00773  -0.00747  -9.95510
   Y36        1.01357   0.00218   0.00000   0.01446   0.01291   1.02648
   Z36       23.36645   0.00493   0.00000   0.01369   0.01337  23.37982
   X37       -7.66396   0.00052   0.00000   0.00783   0.00927  -7.65469
   Y37       -6.71579  -0.00191   0.00000  -0.01900  -0.02019  -6.73598
   Z37       23.44613   0.00488   0.00000   0.01491   0.01535  23.46148
   X38        0.66797   0.00667   0.00000  -0.00433  -0.00405   0.66393
   Y38       -0.18198   0.00269   0.00000   0.00701   0.00646  -0.17552
   Z38       17.50869   0.00207   0.00000   0.00523   0.00477  17.51346
   X39      -18.33038  -0.00678   0.00000   0.00724   0.00836 -18.32202
   Y39       -5.65163  -0.00248   0.00000  -0.01322  -0.01666  -5.66829
   Z39       17.61009   0.00219   0.00000   0.00485   0.00546  17.61555
   X40      -12.06513  -0.00321   0.00000  -0.00357  -0.00431 -12.06945
   Y40        6.43637   0.00897   0.00000  -0.00545  -0.00806   6.42831
   Z40       16.41328  -0.00121   0.00000  -0.00528  -0.00611  16.40717
   X41       -5.60209   0.00174   0.00000  -0.00338  -0.00127  -5.60336
   Y41      -12.27148  -0.00697   0.00000  -0.00383  -0.00544 -12.27692
   Z41       16.52629  -0.00200   0.00000  -0.00475  -0.00377  16.52252
   X42       -3.30699   0.00301   0.00000   0.01753   0.01750  -3.28949
   Y42        1.37537   0.00409   0.00000   0.00619   0.00469   1.38006
   Z42       14.15382  -0.00197   0.00000  -0.01353  -0.01405  14.13977
   X43      -14.36573  -0.00368   0.00000  -0.01734  -0.01604 -14.38177
   Y43       -7.33112  -0.00374   0.00000  -0.01417  -0.01736  -7.34848
   Z43       14.27517  -0.00156   0.00000  -0.01259  -0.01191  14.26326
   X44       -8.45987   0.00060   0.00000  -0.00488  -0.00520  -8.46507
   Y44        4.14176   0.00532   0.00000   0.01865   0.01694   4.15870
   Z44       19.69734   0.00111   0.00000   0.00735   0.00667  19.70401
   X45       -9.18428  -0.00136   0.00000   0.00775   0.00958  -9.17470
   Y45       -9.91470  -0.00504   0.00000  -0.02481  -0.02661  -9.94131
   Z45       19.86501   0.00183   0.00000   0.01185   0.01266  19.87768
   X46       -3.08100   0.00389   0.00000   0.00298   0.00406  -3.07694
   Y46       -6.65298  -0.00434   0.00000  -0.00947  -0.01140  -6.66438
   Z46        9.84035  -0.00470   0.00000   0.00644   0.00676   9.84711
   X47      -14.67229  -0.00422   0.00000   0.00584   0.00583 -14.66646
   Y47        0.48439   0.00362   0.00000   0.00122  -0.00249   0.48190
   Z47        9.71658  -0.00476   0.00000   0.00663   0.00650   9.72308
   X48      -15.08305  -0.00629   0.00000  -0.00327  -0.00278 -15.08584
   Y48       -0.32581   0.00066   0.00000  -0.00905  -0.01131  -0.33711
   Z48       24.16201   0.00532   0.00000  -0.00608  -0.00613  24.15589
   X49       -2.51196   0.00582   0.00000   0.00524   0.00650  -2.50545
   Y49       -5.43389  -0.00070   0.00000   0.00147   0.00114  -5.43276
   Z49       24.17889   0.00478   0.00000  -0.00461  -0.00443  24.17446
   X50       -2.29358  -0.02169   0.00000  -0.00857  -0.00816  -2.30174
   Y50       -1.12464  -0.00704   0.00000  -0.00694  -0.00803  -1.13267
   Z50       16.69911  -0.00445   0.00000  -0.01578  -0.01606  16.68305
   X51      -15.36997   0.02200   0.00000   0.01200   0.01296 -15.35701
   Y51       -4.72885   0.00579   0.00000  -0.00220  -0.00527  -4.73411
   Z51       16.77200  -0.00490   0.00000  -0.01708  -0.01666  16.75534
   X52      -11.13488   0.00863   0.00000   0.00292   0.00265 -11.13223
   Y52        3.47147  -0.02349   0.00000  -0.01734  -0.01973   3.45174
   Z52       17.11052   0.00497   0.00000   0.01451   0.01397  17.12448
   X53       -6.53104  -0.00697   0.00000   0.00223   0.00390  -6.52713
   Y53       -9.29748   0.02141   0.00000   0.00663   0.00496  -9.29252
   Z53       17.30559   0.00417   0.00000   0.01603   0.01671  17.32230
   X54       -7.97682   0.00102   0.00000   0.00134   0.00234  -7.97447
   Y54       -5.90503  -0.00211   0.00000   0.01005   0.00754  -5.89748
   Z54       11.45941  -0.00317   0.00000   0.01049   0.01085  11.47026
   X55       -9.67740  -0.00119   0.00000   0.00310   0.00322  -9.67418
   Y55       -0.09999   0.00226   0.00000  -0.02371  -0.02648  -0.12647
   Z55       11.37279  -0.00302   0.00000   0.01035   0.01015  11.38294
   X56      -11.63812  -0.00247   0.00000   0.01541   0.01639 -11.62174
   Y56       -3.83141   0.00031   0.00000   0.00347   0.00157  -3.82984
   Z56       22.53266   0.00312   0.00000  -0.01150  -0.01126  22.52140
   X57       -5.95329   0.00222   0.00000  -0.01311  -0.01243  -5.96572
   Y57       -1.88076   0.00067   0.00000  -0.00951  -0.01054  -1.89130
   Z57       22.53076   0.00329   0.00000  -0.00929  -0.00940  22.52136
   X58       -8.19851  -0.00028   0.00000   0.00484   0.00458  -8.19393
   Y58        2.98777   0.00362   0.00000  -0.01883  -0.02102   2.96675
   Z58       14.84060  -0.00187   0.00000   0.00766   0.00709  14.84769
   X59       -9.44677  -0.00063   0.00000  -0.00348  -0.00193  -9.44869
   Y59       -8.89059  -0.00314   0.00000   0.00998   0.00763  -8.88296
   Z59       14.96828  -0.00220   0.00000   0.00965   0.01036  14.97865
   X60       -4.31655   0.00213   0.00000  -0.01605  -0.01591  -4.33245
   Y60        1.03425   0.00253   0.00000  -0.00482  -0.00598   1.02828
   Z60       19.03615   0.00243   0.00000  -0.00906  -0.00952  19.02663
   X61      -13.33020  -0.00239   0.00000   0.01900   0.02035 -13.30985
   Y61       -6.84667  -0.00210   0.00000  -0.00273  -0.00524  -6.85191
   Z61       19.14396   0.00214   0.00000  -0.01095  -0.01035  19.13361
   X62       -4.84916   0.00192   0.00000   0.00337   0.00469  -4.84447
   Y62       -7.40086  -0.00310   0.00000   0.00609   0.00442  -7.39644
   Z62       14.83491  -0.00114   0.00000   0.01288   0.01332  14.84823
   X63      -12.83756  -0.00162   0.00000   0.00200   0.00197 -12.83559
   Y63        1.47760   0.00378   0.00000  -0.01523  -0.01813   1.45946
   Z63       14.74254  -0.00065   0.00000   0.01327   0.01298  14.75551
   X64      -14.75054  -0.00355   0.00000   0.01052   0.01116 -14.73938
   Y64       -2.22578   0.00024   0.00000  -0.00013  -0.00286  -2.22863
   Z64       19.20023   0.00142   0.00000  -0.01357  -0.01342  19.18680
   X65       -2.90696   0.00355   0.00000  -0.00682  -0.00597  -2.91292
   Y65       -3.58663   0.00039   0.00000  -0.00723  -0.00816  -3.59479
   Z65       19.17972   0.00111   0.00000  -0.01192  -0.01193  19.16778
   X66       -6.31622   0.04004   0.00000   0.07206   0.07259  -6.24363
   Y66       -2.21059   0.00724   0.00000   0.00465   0.00280  -2.20780
   Z66       15.14249  -0.02576   0.00000  -0.04105  -0.04112  15.10137
   X67      -11.34235  -0.04077   0.00000  -0.06722  -0.06645 -11.40880
   Y67       -3.72060  -0.00839   0.00000  -0.01842  -0.02106  -3.74166
   Z67       15.18779  -0.02544   0.00000  -0.04168  -0.04146  15.14633
   X68       -9.62375  -0.01681   0.00000  -0.03025  -0.02990  -9.65365
   Y68       -0.41870   0.03848   0.00000   0.05885   0.05686  -0.36183
   Z68       18.79876   0.02601   0.00000   0.04218   0.04200  18.84076
   X69       -7.99281   0.01677   0.00000   0.03394   0.03507  -7.95774
   Y69       -5.40102  -0.03697   0.00000  -0.06548  -0.06720  -5.46822
   Z69       18.85033   0.02614   0.00000   0.04176   0.04207  18.89240
   X70       -6.09783  -0.00035   0.00000   0.00016   0.00202  -6.09582
   Y70      -11.62831   0.00135   0.00000   0.00980   0.00750 -11.62081
   Z70       10.67370   0.00093   0.00000   0.01180   0.01271  10.68642
   X71       -0.22467  -0.00079   0.00000  -0.01295  -0.01253  -0.23720
   Y71       -0.07447  -0.00031   0.00000  -0.00554  -0.00562  -0.08009
   Z71       23.29153  -0.00058   0.00000  -0.00948  -0.00993  23.28159
   X72      -17.57628   0.00123   0.00000   0.01663   0.01786 -17.55843
   Y72       -5.33349   0.00021   0.00000  -0.00253  -0.00524  -5.33873
   Z72       23.41689  -0.00090   0.00000  -0.01224  -0.01170  23.40519
   X73       -8.82270   0.00067   0.00000   0.00287   0.00356  -8.81914
   Y73       -2.92980  -0.00029   0.00000  -0.00510  -0.00715  -2.93695
   Z73       16.98962  -0.00051   0.00000  -0.00047  -0.00040  16.98922
         Item               Value     Threshold  Converged?
 Maximum Force            0.040773     0.000450     NO 
 RMS     Force            0.009197     0.000300     NO 
 Maximum Displacement     0.104601     0.001800     NO 
 RMS     Displacement     0.020230     0.001200     NO 
 Predicted change in Energy=-1.296931D-02
 GradGradGradGradGradGradGradGradGradGradGradGradGradGradGradGradGradGrad

 Unable to Open any file for archive entry.
 1\1\GINC-X11P1N2\Force\UwB97XD\def2SVP\C8H8Cl1K3O40V1W12(1-)\MAYUMIAO\
 03-Jun-2024\0\\# def2svp wb97xd scrf=(smd,solvent=acetonitrile) g09def
 ault scf=(xqc,maxcycle=64) force guess=read nosymm\\Title Card\\-1,1\C
 l,-9.72021895,8.28450025,10.54219017\C,-8.40529424,4.30571984,12.19666
 301\C,-9.22213188,3.98608691,11.09564243\C,-10.12033914,2.91049925,11.
 22904459\C,-10.20971142,2.19365801,12.41917041\C,-9.39316338,2.5259201
 6,13.5010808\C,-8.48888723,3.58362248,13.38227672\H,-7.69663642,5.1334
 8004,12.12781345\H,-10.76383305,2.64368699,10.38579402\H,-10.92272807,
 1.37004275,12.50566123\H,-9.45091461,1.95597559,14.43078423\H,-7.84726
 184,3.85411865,14.22445389\C,-9.18360339,4.74684864,9.84442405\C,-8.44
 483072,5.85325346,9.61858796\H,-9.83904254,4.37918594,9.04676149\H,-8.
 46626358,6.35642691,8.65155694\H,-7.73801343,6.24417425,10.35137989\O,
 -0.97260556,-1.83039067,7.44919213\O,-8.37093614,-1.31796011,7.4581507
 9\O,-7.00384622,1.32604248,10.49549852\O,-2.3222064,-4.40106679,10.556
 27623\W,-3.36776656,0.7179034,6.51558432\W,-5.99966593,-3.85118854,6.5
 825687\W,-3.57224556,0.88176346,11.3902091\W,-5.77056131,-3.90273467,1
 1.45888417\W,-2.45274474,-2.58732734,6.36602465\W,-6.8925723,-0.548130
 99,6.3429936\W,-6.77010585,-0.27355783,11.60064781\W,-2.55901073,-2.74
 5733,11.62927372\O,-3.1193699,1.91738146,5.35479579\O,-6.14683213,-5.1
 01823,5.44221903\O,-2.64552179,1.72687784,12.53666224\O,-6.68031252,-4
 .72168984,12.63503138\O,-2.65607188,-0.90537917,5.58723062\O,-6.685751
 87,-2.28297156,5.62295502\O,-5.26405897,0.53635903,12.36499157\O,-4.05
 559092,-3.55384313,12.40715667\O,0.35347587,-0.09629784,9.26519973\O,-
 9.70002007,-2.99071189,9.31885908\O,-6.38459332,3.4059794,8.68553242\O
 ,-2.96449922,-6.49378821,8.74533722\O,-1.74998571,0.72781408,7.4898789
 7\O,-7.60201601,-3.87946167,7.55409404\O,-4.47677288,2.19172607,10.423
 38189\O,-4.86011271,-5.24663262,10.51211262\O,-1.63039464,-3.5206066,5
 .20728656\O,-7.764239,0.25632822,5.14179483\O,-7.9816079,-0.17240898,1
 2.78598719\O,-1.32926961,-2.87549316,12.79491817\W,-1.21370875,-0.5951
 3457,8.83678748\W,-8.13344032,-2.50239725,8.87535897\W,-5.89232271,1.8
 3702038,9.05449501\W,-3.45607687,-4.92001599,9.15772409\O,-4.2211488,-
 3.12480492,6.06405738\O,-5.12106129,-0.05291236,6.01822299\O,-6.158628
 07,-2.02749636,11.92377034\O,-3.1503441,-0.99525492,11.92276413\O,-4.3
 3846521,1.58105818,7.85330655\O,-4.99901317,-4.70469571,7.92087519\O,-
 2.28421929,0.54730278,10.07349661\O,-7.05403934,-3.62310152,10.1305470
 1\O,-2.56606604,-3.91636528,7.85029671\O,-6.79334505,0.78191003,7.8014
 1391\O,-7.80565085,-1.17782973,10.16032223\O,-1.5382962,-1.89796446,10
 .14946813\O,-3.34240129,-1.16979536,8.01305946\O,-6.00211384,-1.968858
 39,8.03703302\O,-5.09266992,-0.22156397,9.94787361\O,-4.22961505,-2.85
 809659,9.97516387\K,-3.22683433,-6.15343664,5.64827997\K,-0.11889087,-
 0.03940937,12.32534442\K,-9.30096752,-2.82236114,12.39168341\V,-4.6687
 7302,-1.55038382,8.99051946\\Version=ES64L-G16RevC.01\HF=-7327.7023294
 \S2=1.021514\S2-1=0.\S2A=0.172317\RMSD=1.912e-09\RMSF=9.197e-03\Dipole
 =1.2009578,-7.2394637,5.5351196\Quadrupole=-4.4385029,30.5589121,-26.1
 204092,94.664709,128.8347155,-70.4357587\PG=C01 [X(C8H8Cl1K3O40V1W12)]
 \\@
 The archive entry for this job was punched.


 THE ONLY DIFFERENCE BETWEEN ECCENTRICS AND JOGGERS
 IS THAT JOGGERS WEAR SWEATBANDS WHEN THEY RUN IN THE RAIN.
 Job cpu time:       0 days 20 hours  9 minutes 59.3 seconds.
 Elapsed time:       0 days  0 hours 23 minutes  1.8 seconds.
 File lengths (MBytes):  RWF=   1870 Int=      0 D2E=      0 Chk=    306 Scr=      1
 Normal termination of Gaussian 16 at Mon Jun  3 09:12:28 2024.
