 Entering Gaussian System, Link 0=g16
 Input=JOBS/8_A.gjf
 Output=JOBS/8_A.log
 Initial command:
 /data/app/gaussian/C01-avx2//g16/l1.exe "/tmp/Gau-590565.inp" -scrdir="/tmp/"
 Entering Link 1 = /data/app/gaussian/C01-avx2//g16/l1.exe PID=    590566.
  
 Copyright (c) 1988-2019, Gaussian, Inc.  All Rights Reserved.
  
 This is part of the Gaussian(R) 16 program.  It is based on
 the Gaussian(R) 09 system (copyright 2009, Gaussian, Inc.),
 the Gaussian(R) 03 system (copyright 2003, Gaussian, Inc.),
 the Gaussian(R) 98 system (copyright 1998, Gaussian, Inc.),
 the Gaussian(R) 94 system (copyright 1995, Gaussian, Inc.),
 the Gaussian 92(TM) system (copyright 1992, Gaussian, Inc.),
 the Gaussian 90(TM) system (copyright 1990, Gaussian, Inc.),
 the Gaussian 88(TM) system (copyright 1988, Gaussian, Inc.),
 the Gaussian 86(TM) system (copyright 1986, Carnegie Mellon
 University), and the Gaussian 82(TM) system (copyright 1983,
 Carnegie Mellon University). Gaussian is a federally registered
 trademark of Gaussian, Inc.
  
 This software contains proprietary and confidential information,
 including trade secrets, belonging to Gaussian, Inc.
  
 This software is provided under written license and may be
 used, copied, transmitted, or stored only in accord with that
 written license.
  
 The following legend is applicable only to US Government
 contracts under FAR:
  
                    RESTRICTED RIGHTS LEGEND
  
 Use, reproduction and disclosure by the US Government is
 subject to restrictions as set forth in subparagraphs (a)
 and (c) of the Commercial Computer Software - Restricted
 Rights clause in FAR 52.227-19.
  
 Gaussian, Inc.
 340 Quinnipiac St., Bldg. 40, Wallingford CT 06492
  
  
 ---------------------------------------------------------------
 Warning -- This program may not be used in any manner that
 competes with the business of Gaussian, Inc. or will provide
 assistance to any competitor of Gaussian, Inc.  The licensee
 of this program is prohibited from giving any competitor of
 Gaussian, Inc. access to this program.  By using this program,
 the user acknowledges that Gaussian, Inc. is engaged in the
 business of creating and licensing software in the field of
 computational chemistry and represents and warrants to the
 licensee that it is not a competitor of Gaussian, Inc. and that
 it will not use this program in any manner prohibited above.
 ---------------------------------------------------------------
  

 Cite this work as:
 Gaussian 16, Revision C.01,
 M. J. Frisch, G. W. Trucks, H. B. Schlegel, G. E. Scuseria, 
 M. A. Robb, J. R. Cheeseman, G. Scalmani, V. Barone, 
 G. A. Petersson, H. Nakatsuji, X. Li, M. Caricato, A. V. Marenich, 
 J. Bloino, B. G. Janesko, R. Gomperts, B. Mennucci, H. P. Hratchian, 
 J. V. Ortiz, A. F. Izmaylov, J. L. Sonnenberg, D. Williams-Young, 
 F. Ding, F. Lipparini, F. Egidi, J. Goings, B. Peng, A. Petrone, 
 T. Henderson, D. Ranasinghe, V. G. Zakrzewski, J. Gao, N. Rega, 
 G. Zheng, W. Liang, M. Hada, M. Ehara, K. Toyota, R. Fukuda, 
 J. Hasegawa, M. Ishida, T. Nakajima, Y. Honda, O. Kitao, H. Nakai, 
 T. Vreven, K. Throssell, J. A. Montgomery, Jr., J. E. Peralta, 
 F. Ogliaro, M. J. Bearpark, J. J. Heyd, E. N. Brothers, K. N. Kudin, 
 V. N. Staroverov, T. A. Keith, R. Kobayashi, J. Normand, 
 K. Raghavachari, A. P. Rendell, J. C. Burant, S. S. Iyengar, 
 J. Tomasi, M. Cossi, J. M. Millam, M. Klene, C. Adamo, R. Cammi, 
 J. W. Ochterski, R. L. Martin, K. Morokuma, O. Farkas, 
 J. B. Foresman, and D. J. Fox, Gaussian, Inc., Wallingford CT, 2019.
 
 ******************************************
 Gaussian 16:  ES64L-G16RevC.01  3-Jul-2019
                 1-Jun-2024 
 ******************************************
 %chk=a.chk
 %nprocshared=56
 Will use up to   56 processors via shared memory.
 %mem=96gb
 ----------------------------------------------------------------------
 # def2svp wb97xd scrf=(smd,solvent=acetonitrile) g09default scf=(xqc,m
 axcycle=64) force guess=read nosymm
 ----------------------------------------------------------------------
 1/10=7,30=1,38=1,158=3,167=1/1,3;
 2/12=2,15=1,17=6,18=5,40=1/2;
 3/5=43,7=101,11=2,25=1,27=10,30=1,70=32201,71=1,72=2,74=-58,75=-4,116=-2,158=3/1,2,3;
 4/5=1,60=-1/1;
 5/5=2,7=64,8=3,13=1,38=6,53=2,87=10/2,8;
 6/7=2,8=2,9=2,10=2,28=1,87=10/1;
 7/29=1,30=1,87=10/1,2,3,16;
 1/10=7,30=1,158=3,167=1/3;
 99//99;
 Using 2006 physical constants.
 ----------
 Title Card
 ----------
 Symbolic Z-matrix:
 Charge = -1 Multiplicity = 1
 17                   -9.91493   7.68267   10.40884 
 6                    -8.3141    4.25122   12.23939 
 6                    -9.06587   3.92849   11.09614 
 6                    -10.00774   2.89151   11.19941 
 6                    -10.18585   2.19351   12.38941 
 6                    -9.4275    2.52046   13.5139 
 6                    -8.48944   3.55108   13.43009 
 1                    -7.57692   5.05683   12.19908 
 1                    -10.59706   2.62803   10.31693 
 1                    -10.91237   1.3793    12.43441 
 1                    -9.55863   1.96793   14.44724 
 1                    -7.88404   3.809     14.30308 
 6                    -8.91144   4.6175    9.81469 
 6                    -8.08161   5.64185   9.56975 
 1                    -9.60898   4.31323   9.02862 
 1                    -8.0579    6.12463   8.59335 
 1                    -7.38565   6.03685   10.31155 
 8                    -1.01539  -1.76029   7.45828 
 8                    -8.40484  -1.32779   7.46286 
 8                    -7.05839   1.3354    10.4953 
 8                    -2.34027  -4.34512   10.56461 
 74                   -3.4335    0.75191   6.50938 
 74                   -6.01167  -3.82749   6.59064 
 74                   -3.63528   0.92082   11.39809 
 74                   -5.7778   -3.86701   11.4667 
 74                   -2.46967  -2.54683   6.37578 
 74                   -6.95119  -0.5285    6.34846 
 74                   -6.83304  -0.2537    11.60047 
 74                   -2.57033  -2.69051   11.63035 
 8                    -3.20788   1.95578   5.34751 
 8                    -6.13619  -5.09114   5.46043 
 8                    -2.70149   1.76955   12.53759 
 8                    -6.70338  -4.67913   12.63913 
 8                    -2.6952   -0.86375   5.60518 
 8                    -6.71832  -2.26975   5.64656 
 8                    -5.32343   0.56868   12.3535 
 8                    -4.0684   -3.51225   12.39891 
 8                     0.30078  -0.0056    9.28706 
 8                    -9.72341  -3.0136    9.34874 
 8                    -6.43183   3.41853   8.64348 
 8                    -2.96216  -6.45087   8.73542 
 8                    -1.81627   0.77146   7.49147 
 8                    -7.61227  -3.86228   7.56605 
 8                    -4.55347   2.21452   10.42179 
 8                    -4.8563   -5.20174   10.51979 
 8                    -1.65037  -3.48235   5.21647 
 8                    -7.81843   0.27251   5.14201 
 8                    -8.03975  -0.18653   12.79224 
 8                    -1.33921  -2.78921   12.79863 
 74                   -1.2575   -0.52099   8.84433 
 74                   -8.16798  -2.5059    8.88668 
 74                   -5.95291   1.85872   9.04904 
 74                   -3.46154  -4.88309   9.16362 
 8                    -4.24287  -3.08002   6.08677 
 8                    -5.1718   -0.04566   6.03418 
 8                    -6.17408  -1.9948    11.90744 
 8                    -3.20627  -0.954     11.91368 
 8                    -4.40233   1.59312   7.86202 
 8                    -5.00558  -4.65286   7.94515 
 8                    -2.35721   0.58846   10.06514 
 8                    -7.05462  -3.59565   10.12475 
 8                    -2.57487  -3.86104   7.86576 
 8                    -6.8562    0.78334   7.80786 
 8                    -7.8437   -1.16439   10.15685 
 8                    -1.57775  -1.8427    10.14717 
 8                    -3.39996  -1.12509   8.02164 
 8                    -6.02     -1.95172   8.04979 
 8                    -5.12827  -0.20495   9.94569 
 8                    -4.26177  -2.8114    9.97642 
 19                   -3.24168  -6.08712   5.6893 
 19                   -0.18072   0.02491   12.32625 
 19                   -9.23561  -2.92361   12.38147 
 23                   -4.70518  -1.51975   8.99611 
 

 GradGradGradGradGradGradGradGradGradGradGradGradGradGradGradGradGradGrad
 Berny optimization.
 Initialization pass.
 Trust Radius=3.00D-01 FncErr=1.00D-07 GrdErr=1.00D-07 EigMax=2.50D+02 EigMin=1.00D-04
 Number of steps in this run=      2 maximum allowed number of steps=      2.
 GradGradGradGradGradGradGradGradGradGradGradGradGradGradGradGradGradGrad

 Symmetry turned off by external request.
 Stoichiometry    C8H8ClK3O40VW12(1-)
 Framework group  C1[X(C8H8ClK3O40VW12)]
 Deg. of freedom   213
 Full point group                 C1      NOp   1
                          Input orientation:                          
 ---------------------------------------------------------------------
 Center     Atomic      Atomic             Coordinates (Angstroms)
 Number     Number       Type             X           Y           Z
 ---------------------------------------------------------------------
      1         17           0       -9.914927    7.682667   10.408838
      2          6           0       -8.314100    4.251216   12.239387
      3          6           0       -9.065871    3.928486   11.096144
      4          6           0      -10.007735    2.891512   11.199406
      5          6           0      -10.185853    2.193513   12.389415
      6          6           0       -9.427496    2.520465   13.513900
      7          6           0       -8.489439    3.551081   13.430086
      8          1           0       -7.576922    5.056831   12.199078
      9          1           0      -10.597065    2.628027   10.316927
     10          1           0      -10.912368    1.379303   12.434411
     11          1           0       -9.558630    1.967927   14.447242
     12          1           0       -7.884035    3.808996   14.303078
     13          6           0       -8.911436    4.617497    9.814693
     14          6           0       -8.081609    5.641846    9.569751
     15          1           0       -9.608979    4.313235    9.028618
     16          1           0       -8.057902    6.124627    8.593350
     17          1           0       -7.385648    6.036847   10.311549
     18          8           0       -1.015394   -1.760294    7.458285
     19          8           0       -8.404841   -1.327794    7.462861
     20          8           0       -7.058389    1.335397   10.495297
     21          8           0       -2.340272   -4.345123   10.564612
     22         74           0       -3.433503    0.751913    6.509383
     23         74           0       -6.011666   -3.827489    6.590645
     24         74           0       -3.635282    0.920822   11.398095
     25         74           0       -5.777804   -3.867013   11.466696
     26         74           0       -2.469669   -2.546831    6.375779
     27         74           0       -6.951193   -0.528496    6.348462
     28         74           0       -6.833041   -0.253704   11.600470
     29         74           0       -2.570332   -2.690512   11.630355
     30          8           0       -3.207882    1.955784    5.347513
     31          8           0       -6.136191   -5.091144    5.460433
     32          8           0       -2.701489    1.769551   12.537591
     33          8           0       -6.703383   -4.679134   12.639131
     34          8           0       -2.695203   -0.863753    5.605178
     35          8           0       -6.718324   -2.269750    5.646561
     36          8           0       -5.323431    0.568683   12.353500
     37          8           0       -4.068402   -3.512251   12.398905
     38          8           0        0.300784   -0.005600    9.287057
     39          8           0       -9.723406   -3.013604    9.348741
     40          8           0       -6.431832    3.418532    8.643481
     41          8           0       -2.962163   -6.450865    8.735423
     42          8           0       -1.816270    0.771457    7.491474
     43          8           0       -7.612269   -3.862277    7.566045
     44          8           0       -4.553471    2.214516   10.421794
     45          8           0       -4.856295   -5.201745   10.519786
     46          8           0       -1.650365   -3.482350    5.216472
     47          8           0       -7.818427    0.272507    5.142012
     48          8           0       -8.039749   -0.186526   12.792237
     49          8           0       -1.339206   -2.789212   12.798628
     50         74           0       -1.257499   -0.520985    8.844334
     51         74           0       -8.167978   -2.505905    8.886676
     52         74           0       -5.952914    1.858722    9.049035
     53         74           0       -3.461537   -4.883088    9.163620
     54          8           0       -4.242868   -3.080024    6.086767
     55          8           0       -5.171797   -0.045663    6.034185
     56          8           0       -6.174083   -1.994801   11.907435
     57          8           0       -3.206269   -0.954004   11.913677
     58          8           0       -4.402333    1.593121    7.862023
     59          8           0       -5.005582   -4.652857    7.945147
     60          8           0       -2.357212    0.588461   10.065144
     61          8           0       -7.054619   -3.595650   10.124747
     62          8           0       -2.574872   -3.861042    7.865764
     63          8           0       -6.856197    0.783343    7.807862
     64          8           0       -7.843700   -1.164393   10.156846
     65          8           0       -1.577754   -1.842696   10.147173
     66          8           0       -3.399962   -1.125089    8.021640
     67          8           0       -6.019996   -1.951716    8.049790
     68          8           0       -5.128274   -0.204948    9.945686
     69          8           0       -4.261771   -2.811395    9.976416
     70         19           0       -3.241683   -6.087122    5.689304
     71         19           0       -0.180722    0.024912   12.326250
     72         19           0       -9.235607   -2.923605   12.381475
     73         23           0       -4.705179   -1.519753    8.996111
 ---------------------------------------------------------------------
 Rotational constants (GHZ):           0.0172431           0.0133811           0.0131687
 Standard basis: def2SVP (5D, 7F)
  1217 basis functions,  2313 primitive gaussians,  1337 cartesian basis functions
   321 alpha electrons      321 beta electrons
       nuclear repulsion energy     21062.0274718979 Hartrees.
 NAtoms=   73 NActive=   73 NUniq=   73 SFac= 1.00D+00 NAtFMM=   60 NAOKFM=T Big=T
 Integral buffers will be    131072 words long.
 Raffenetti 2 integral format.
 Two-electron integral symmetry is turned off.
 Nuclear repulsion after empirical dispersion term =    21061.7489845870 Hartrees.
 Force PCM accuracy= 1.00D-10.
 ------------------------------------------------------------------------------
 Polarizable Continuum Model (PCM)
 =================================
 Model                : PCM (using non-symmetric T matrix).
 Atomic radii         : SMD-Coulomb.
 Polarization charges : Total charges.
 Charge compensation  : None.
 Solution method      : On-the-fly selection.
 Cavity type          : VdW (van der Waals Surface) (Alpha=1.000).
 Cavity algorithm     : GePol (No added spheres)
                        Default sphere list used, NSphG=   73.
                        Lebedev-Laikov grids with approx.  5.0 points / Ang**2.
                        Smoothing algorithm: York/Karplus (Gamma=1.0000).
                        Polarization charges: spherical gaussians, with
                                              point-specific exponents (IZeta= 3).
                        Self-potential: point-specific (ISelfS= 7).
                        Self-field    : sphere-specific E.n sum rule (ISelfD= 2).
 1st derivatives      : Analytical E(r).r(x)/FMM algorithm (CHGder, D1EAlg=3).
                        Cavity 1st derivative terms included.
 Solvent              : Acetonitrile, Eps=  35.688000 Eps(inf)=   1.806874
 ------------------------------------------------------------------------------
 ------------------------------------------------------------------------------
 Atomic radii for non-electrostatic terms: SMD-CDS.
 ------------------------------------------------------------------------------
 Nuclear repulsion after PCM non-electrostatic terms =    21061.7431919743 Hartrees.
 One-electron integrals computed using PRISM.
   1 Symmetry operations used in ECPInt.
 ECPInt:  NShTT=  127765 NPrTT=  468030 LenC2=   96912 LenP2D=  221964.
 LDataN:  DoStor=T MaxTD1= 8 Len=  415
 NBasis=  1217 RedAO= T EigKep=  1.34D-04  NBF=  1217
 NBsUse=  1217 1.00D-06 EigRej= -1.00D+00 NBFU=  1217
 Defaulting to unpruned grid for atomic number  74.
 Defaulting to unpruned grid for atomic number  74.
 Defaulting to unpruned grid for atomic number  74.
 Defaulting to unpruned grid for atomic number  74.
 Defaulting to unpruned grid for atomic number  74.
 Defaulting to unpruned grid for atomic number  74.
 Defaulting to unpruned grid for atomic number  74.
 Defaulting to unpruned grid for atomic number  74.
 Initial guess from the checkpoint file:  "a.chk"
 B after Tr=     0.000107    0.000805   -0.000213
         Rot=    1.000000   -0.000020    0.000001    0.000026 Ang=  -0.00 deg.
 Requested convergence on RMS density matrix=1.00D-08 within  64 cycles.
 Requested convergence on MAX density matrix=1.00D-06.
 Requested convergence on             energy=1.00D-06.
 No special actions if energy rises.
 Defaulting to unpruned grid for atomic number  74.
 Defaulting to unpruned grid for atomic number  74.
 Defaulting to unpruned grid for atomic number  74.
 Defaulting to unpruned grid for atomic number  74.
 Defaulting to unpruned grid for atomic number  74.
 Defaulting to unpruned grid for atomic number  74.
 Defaulting to unpruned grid for atomic number  74.
 Defaulting to unpruned grid for atomic number  74.
 Defaulting to unpruned grid for atomic number  74.
 Defaulting to unpruned grid for atomic number  74.
 Defaulting to unpruned grid for atomic number  74.
 Defaulting to unpruned grid for atomic number  74.
 Defaulting to unpruned grid for atomic number  74.
 Defaulting to unpruned grid for atomic number  74.
 Defaulting to unpruned grid for atomic number  74.
 Defaulting to unpruned grid for atomic number  74.
 Defaulting to unpruned grid for atomic number  74.
 Defaulting to unpruned grid for atomic number  74.
 Defaulting to unpruned grid for atomic number  74.
 Defaulting to unpruned grid for atomic number  74.
 Defaulting to unpruned grid for atomic number  74.
 Defaulting to unpruned grid for atomic number  74.
 Defaulting to unpruned grid for atomic number  74.
 Defaulting to unpruned grid for atomic number  74.
 Defaulting to unpruned grid for atomic number  74.
 Defaulting to unpruned grid for atomic number  74.
 Defaulting to unpruned grid for atomic number  74.
 Defaulting to unpruned grid for atomic number  74.
 Defaulting to unpruned grid for atomic number  74.
 Defaulting to unpruned grid for atomic number  74.
 Defaulting to unpruned grid for atomic number  74.
 Defaulting to unpruned grid for atomic number  74.
 Defaulting to unpruned grid for atomic number  74.
 Defaulting to unpruned grid for atomic number  74.
 Defaulting to unpruned grid for atomic number  74.
 Defaulting to unpruned grid for atomic number  74.
 Defaulting to unpruned grid for atomic number  74.
 Defaulting to unpruned grid for atomic number  74.
 Defaulting to unpruned grid for atomic number  74.
 Defaulting to unpruned grid for atomic number  74.
 Defaulting to unpruned grid for atomic number  74.
 Defaulting to unpruned grid for atomic number  74.
 Defaulting to unpruned grid for atomic number  74.
 Defaulting to unpruned grid for atomic number  74.
 Defaulting to unpruned grid for atomic number  74.
 Defaulting to unpruned grid for atomic number  74.
 Defaulting to unpruned grid for atomic number  74.
 Defaulting to unpruned grid for atomic number  74.
 Defaulting to unpruned grid for atomic number  74.
 Defaulting to unpruned grid for atomic number  74.
 Defaulting to unpruned grid for atomic number  74.
 Defaulting to unpruned grid for atomic number  74.
 Defaulting to unpruned grid for atomic number  74.
 Defaulting to unpruned grid for atomic number  74.
 Defaulting to unpruned grid for atomic number  74.
 Defaulting to unpruned grid for atomic number  74.
 Inv3:  Mode=1 IEnd=    85002987.
 Iteration    1 A*A^-1 deviation from unit magnitude is 3.89D-15 for   2686.
 Iteration    1 A*A^-1 deviation from orthogonality  is 2.44D-15 for   3244   1677.
 Iteration    1 A^-1*A deviation from unit magnitude is 3.11D-15 for   1957.
 Iteration    1 A^-1*A deviation from orthogonality  is 1.02D-12 for   3442   3176.
 Error on total polarization charges =  0.01622
 SCF Done:  E(RwB97XD) =  -7327.69837890     A.U. after   13 cycles
            NFock= 13  Conv=0.45D-08     -V/T= 2.0831
 SMD-CDS (non-electrostatic) energy       (kcal/mol) =      -3.63
 (included in total energy above)
 QCSCF skips out because SCF is already converged.

 **********************************************************************

            Population analysis using the SCF Density.

 **********************************************************************

 Alpha  occ. eigenvalues -- -197.27513-129.99964-129.99939-129.99845-101.47783
 Alpha  occ. eigenvalues --  -22.60797 -19.32649 -19.32628 -19.32620 -19.32615
 Alpha  occ. eigenvalues --  -19.30597 -19.30594 -19.30585 -19.30581 -19.30548
 Alpha  occ. eigenvalues --  -19.30540 -19.30532 -19.30516 -19.30431 -19.30238
 Alpha  occ. eigenvalues --  -19.30211 -19.30003 -19.29245 -19.29244 -19.29243
 Alpha  occ. eigenvalues --  -19.29228 -19.29219 -19.29213 -19.29189 -19.29177
 Alpha  occ. eigenvalues --  -19.29131 -19.29122 -19.29104 -19.29069 -19.29065
 Alpha  occ. eigenvalues --  -19.29035 -19.29033 -19.29029 -19.28999 -19.28999
 Alpha  occ. eigenvalues --  -19.28989 -19.28961 -19.28940 -19.28877 -19.28844
 Alpha  occ. eigenvalues --  -19.28730 -19.09733 -19.09722 -19.09721 -13.37360
 Alpha  occ. eigenvalues --  -13.37335 -13.37229 -10.70291 -10.70283 -10.70282
 Alpha  occ. eigenvalues --  -10.70266 -10.70257 -10.70257 -10.70161 -10.70153
 Alpha  occ. eigenvalues --  -10.70150 -10.29502 -10.29203 -10.29118 -10.28872
 Alpha  occ. eigenvalues --  -10.28727 -10.28677 -10.27705 -10.26678  -9.38260
 Alpha  occ. eigenvalues --   -7.13089  -7.13038  -7.13028  -3.23210  -3.23200
 Alpha  occ. eigenvalues --   -3.23188  -3.23176  -3.23175  -3.23148  -3.23128
 Alpha  occ. eigenvalues --   -3.23124  -3.23069  -3.22851  -3.22830  -3.22555
 Alpha  occ. eigenvalues --   -2.90459  -1.92966  -1.92937  -1.92916  -1.87601
 Alpha  occ. eigenvalues --   -1.87523  -1.87512  -1.87460  -1.87371  -1.87348
 Alpha  occ. eigenvalues --   -1.87327  -1.87314  -1.87268  -1.87139  -1.87105
 Alpha  occ. eigenvalues --   -1.86917  -1.86541  -1.86423  -1.86412  -1.86399
 Alpha  occ. eigenvalues --   -1.86362  -1.86330  -1.86249  -1.86226  -1.86210
 Alpha  occ. eigenvalues --   -1.86202  -1.86173  -1.86151  -1.86069  -1.86044
 Alpha  occ. eigenvalues --   -1.86030  -1.86003  -1.85968  -1.85912  -1.85892
 Alpha  occ. eigenvalues --   -1.85820  -1.85800  -1.85702  -1.85555  -1.85478
 Alpha  occ. eigenvalues --   -1.51064  -1.51040  -1.50936  -1.12490  -1.10677
 Alpha  occ. eigenvalues --   -1.10571  -1.10564  -1.08638  -1.08431  -1.08409
 Alpha  occ. eigenvalues --   -1.08214  -1.07259  -1.07194  -1.07181  -1.06827
 Alpha  occ. eigenvalues --   -1.06819  -1.06784  -1.06221  -1.06208  -1.05314
 Alpha  occ. eigenvalues --   -1.05299  -1.04915  -1.04903  -1.04877  -1.04169
 Alpha  occ. eigenvalues --   -1.04151  -1.04114  -1.03954  -1.03940  -1.03927
 Alpha  occ. eigenvalues --   -1.03851  -1.03832  -1.03803  -1.03663  -1.03631
 Alpha  occ. eigenvalues --   -1.03522  -1.03484  -1.03179  -1.03160  -1.03093
 Alpha  occ. eigenvalues --   -1.03070  -1.03015  -1.02871  -0.94188  -0.86557
 Alpha  occ. eigenvalues --   -0.86536  -0.86442  -0.86345  -0.86341  -0.86320
 Alpha  occ. eigenvalues --   -0.86315  -0.86229  -0.86221  -0.86206  -0.82607
 Alpha  occ. eigenvalues --   -0.79534  -0.71024  -0.69497  -0.67807  -0.64567
 Alpha  occ. eigenvalues --   -0.63907  -0.63849  -0.63823  -0.62806  -0.62781
 Alpha  occ. eigenvalues --   -0.62767  -0.62714  -0.62297  -0.62272  -0.61472
 Alpha  occ. eigenvalues --   -0.61454  -0.61435  -0.61328  -0.61231  -0.61218
 Alpha  occ. eigenvalues --   -0.61180  -0.60367  -0.59301  -0.59232  -0.59174
 Alpha  occ. eigenvalues --   -0.59116  -0.59104  -0.58478  -0.57953  -0.57926
 Alpha  occ. eigenvalues --   -0.57855  -0.56734  -0.56709  -0.56649  -0.56107
 Alpha  occ. eigenvalues --   -0.56091  -0.55952  -0.55595  -0.54774  -0.54719
 Alpha  occ. eigenvalues --   -0.54704  -0.54338  -0.54186  -0.54077  -0.54039
 Alpha  occ. eigenvalues --   -0.53844  -0.53797  -0.53369  -0.53339  -0.52988
 Alpha  occ. eigenvalues --   -0.52964  -0.52845  -0.52707  -0.52675  -0.52656
 Alpha  occ. eigenvalues --   -0.52628  -0.52509  -0.52459  -0.52256  -0.51352
 Alpha  occ. eigenvalues --   -0.51323  -0.51166  -0.51138  -0.51075  -0.51024
 Alpha  occ. eigenvalues --   -0.50999  -0.50918  -0.50857  -0.50831  -0.50655
 Alpha  occ. eigenvalues --   -0.50630  -0.50576  -0.49884  -0.49873  -0.49191
 Alpha  occ. eigenvalues --   -0.49167  -0.49078  -0.49073  -0.49043  -0.49015
 Alpha  occ. eigenvalues --   -0.48684  -0.47841  -0.47808  -0.47706  -0.47374
 Alpha  occ. eigenvalues --   -0.47252  -0.47213  -0.47147  -0.46919  -0.46817
 Alpha  occ. eigenvalues --   -0.46740  -0.46457  -0.46438  -0.46356  -0.45882
 Alpha  occ. eigenvalues --   -0.45824  -0.45783  -0.45413  -0.44986  -0.44806
 Alpha  occ. eigenvalues --   -0.44762  -0.44023  -0.43976  -0.43859  -0.43297
 Alpha  occ. eigenvalues --   -0.43238  -0.43173  -0.43040  -0.43027  -0.42973
 Alpha  occ. eigenvalues --   -0.42620  -0.42617  -0.42596  -0.42464  -0.42440
 Alpha  occ. eigenvalues --   -0.42401  -0.42383  -0.42330  -0.42245  -0.42226
 Alpha  occ. eigenvalues --   -0.42179  -0.41957  -0.41862  -0.41791  -0.41785
 Alpha  occ. eigenvalues --   -0.41176  -0.41159  -0.41007  -0.40922  -0.40513
 Alpha  occ. eigenvalues --   -0.40477  -0.40445  -0.40126  -0.39361  -0.39338
 Alpha  occ. eigenvalues --   -0.36588  -0.32380  -0.28921  -0.24729  -0.24662
 Alpha  occ. eigenvalues --   -0.22478
 Alpha virt. eigenvalues --   -0.08302  -0.08254  -0.07850  -0.07753  -0.06813
 Alpha virt. eigenvalues --   -0.06795  -0.06697  -0.03617  -0.03533  -0.03471
 Alpha virt. eigenvalues --   -0.03285  -0.03074  -0.03037  -0.02901  -0.02533
 Alpha virt. eigenvalues --   -0.02466  -0.02407  -0.01930  -0.01865  -0.01812
 Alpha virt. eigenvalues --   -0.01232  -0.01189  -0.01146  -0.01050  -0.00985
 Alpha virt. eigenvalues --    0.00130   0.00166   0.00264   0.01579   0.01675
 Alpha virt. eigenvalues --    0.02120   0.02150   0.02208   0.02312   0.02333
 Alpha virt. eigenvalues --    0.02394   0.02416   0.02530   0.02878   0.02974
 Alpha virt. eigenvalues --    0.03131   0.03174   0.03242   0.04681   0.04754
 Alpha virt. eigenvalues --    0.06947   0.07479   0.07579   0.07651   0.07927
 Alpha virt. eigenvalues --    0.08040   0.08580   0.08631   0.08962   0.09157
 Alpha virt. eigenvalues --    0.09332   0.09380   0.09635   0.09891   0.10232
 Alpha virt. eigenvalues --    0.10308   0.10346   0.10405   0.10458   0.10686
 Alpha virt. eigenvalues --    0.10923   0.11100   0.11142   0.11755   0.11780
 Alpha virt. eigenvalues --    0.12436   0.13190   0.13289   0.13435   0.13623
 Alpha virt. eigenvalues --    0.13769   0.14591   0.14658   0.14758   0.15176
 Alpha virt. eigenvalues --    0.15576   0.16244   0.16425   0.16687   0.16752
 Alpha virt. eigenvalues --    0.16831   0.16997   0.17104   0.17260   0.17789
 Alpha virt. eigenvalues --    0.18028   0.18159   0.18217   0.18400   0.18620
 Alpha virt. eigenvalues --    0.18841   0.18993   0.19200   0.19310   0.19500
 Alpha virt. eigenvalues --    0.19558   0.20158   0.20320   0.20405   0.20660
 Alpha virt. eigenvalues --    0.20722   0.20942   0.20969   0.21333   0.21408
 Alpha virt. eigenvalues --    0.21504   0.21635   0.21762   0.21929   0.22354
 Alpha virt. eigenvalues --    0.22685   0.22834   0.23044   0.23327   0.23463
 Alpha virt. eigenvalues --    0.23623   0.23967   0.24123   0.24298   0.24670
 Alpha virt. eigenvalues --    0.24852   0.25260   0.25666   0.25739   0.26057
 Alpha virt. eigenvalues --    0.26209   0.26408   0.26485   0.26587   0.26830
 Alpha virt. eigenvalues --    0.27185   0.27347   0.27562   0.27741   0.27938
 Alpha virt. eigenvalues --    0.28213   0.28369   0.28467   0.28757   0.28804
 Alpha virt. eigenvalues --    0.29484   0.29871   0.30111   0.30320   0.30729
 Alpha virt. eigenvalues --    0.30890   0.31302   0.31389   0.31836   0.31957
 Alpha virt. eigenvalues --    0.32458   0.35225   0.35418   0.36042   0.36605
 Alpha virt. eigenvalues --    0.36802   0.37224   0.37407   0.38249   0.38886
 Alpha virt. eigenvalues --    0.39059   0.39539   0.39766   0.40030   0.40400
 Alpha virt. eigenvalues --    0.40902   0.41090   0.41197   0.41407   0.41948
 Alpha virt. eigenvalues --    0.42305   0.42587   0.42862   0.43363   0.43562
 Alpha virt. eigenvalues --    0.43711   0.44485   0.44718   0.44898   0.45270
 Alpha virt. eigenvalues --    0.45837   0.46362   0.46653   0.46875   0.47199
 Alpha virt. eigenvalues --    0.47390   0.47724   0.47902   0.48045   0.48159
 Alpha virt. eigenvalues --    0.48387   0.48495   0.48674   0.48919   0.49009
 Alpha virt. eigenvalues --    0.49134   0.49238   0.49465   0.49661   0.49888
 Alpha virt. eigenvalues --    0.50159   0.50435   0.50658   0.50876   0.51367
 Alpha virt. eigenvalues --    0.51768   0.51827   0.52065   0.52296   0.52611
 Alpha virt. eigenvalues --    0.52702   0.52965   0.53184   0.53355   0.53539
 Alpha virt. eigenvalues --    0.53744   0.54318   0.54509   0.54544   0.54887
 Alpha virt. eigenvalues --    0.54981   0.55431   0.55822   0.56480   0.56572
 Alpha virt. eigenvalues --    0.56866   0.57391   0.57966   0.58386   0.58625
 Alpha virt. eigenvalues --    0.58878   0.59451   0.59718   0.60681   0.61315
 Alpha virt. eigenvalues --    0.61729   0.62931   0.62973   0.63042   0.64165
 Alpha virt. eigenvalues --    0.64546   0.65806   0.65888   0.65973   0.66181
 Alpha virt. eigenvalues --    0.66655   0.67219   0.67582   0.67683   0.67945
 Alpha virt. eigenvalues --    0.68328   0.68798   0.70504   0.70880   0.71505
 Alpha virt. eigenvalues --    0.71741   0.72297   0.72437   0.72511   0.72637
 Alpha virt. eigenvalues --    0.72797   0.73019   0.73383   0.73786   0.74184
 Alpha virt. eigenvalues --    0.74807   0.75087   0.75896   0.76164   0.76312
 Alpha virt. eigenvalues --    0.76574   0.76912   0.77327   0.77650   0.77906
 Alpha virt. eigenvalues --    0.78262   0.78677   0.79452   0.79733   0.79826
 Alpha virt. eigenvalues --    0.79920   0.80567   0.80901   0.81301   0.81604
 Alpha virt. eigenvalues --    0.81808   0.81936   0.82324   0.83020   0.83358
 Alpha virt. eigenvalues --    0.84446   0.84515   0.85138   0.85581   0.86296
 Alpha virt. eigenvalues --    0.87514   0.87727   0.88248   0.88363   0.89116
 Alpha virt. eigenvalues --    0.89278   0.89382   0.89794   0.89857   0.90705
 Alpha virt. eigenvalues --    0.91033   0.91229   0.91553   0.91869   0.92130
 Alpha virt. eigenvalues --    0.92951   0.93256   0.94161   0.94193   0.94387
 Alpha virt. eigenvalues --    0.94687   0.95169   0.96113   0.96241   0.97254
 Alpha virt. eigenvalues --    0.97338   0.97438   0.97631   0.98058   0.98122
 Alpha virt. eigenvalues --    0.98448   0.98620   0.98794   0.98913   0.99051
 Alpha virt. eigenvalues --    0.99470   1.00057   1.00528   1.00646   1.00783
 Alpha virt. eigenvalues --    1.01014   1.01483   1.01644   1.01870   1.02316
 Alpha virt. eigenvalues --    1.02357   1.02406   1.02559   1.02858   1.02916
 Alpha virt. eigenvalues --    1.03117   1.03811   1.03865   1.04058   1.04167
 Alpha virt. eigenvalues --    1.04454   1.04607   1.04698   1.04801   1.05041
 Alpha virt. eigenvalues --    1.05309   1.05392   1.05534   1.05821   1.05900
 Alpha virt. eigenvalues --    1.06212   1.06551   1.07118   1.07264   1.07594
 Alpha virt. eigenvalues --    1.07879   1.08306   1.09051   1.09444   1.09532
 Alpha virt. eigenvalues --    1.09772   1.09877   1.10123   1.10281   1.10451
 Alpha virt. eigenvalues --    1.10894   1.10985   1.11158   1.11483   1.11696
 Alpha virt. eigenvalues --    1.11722   1.12015   1.12315   1.12904   1.13177
 Alpha virt. eigenvalues --    1.13615   1.13974   1.14183   1.14815   1.15281
 Alpha virt. eigenvalues --    1.15531   1.16155   1.16427   1.16836   1.17249
 Alpha virt. eigenvalues --    1.17643   1.17894   1.18190   1.18786   1.19221
 Alpha virt. eigenvalues --    1.20762   1.20847   1.21217   1.21321   1.21369
 Alpha virt. eigenvalues --    1.21569   1.22005   1.22144   1.22945   1.23868
 Alpha virt. eigenvalues --    1.25089   1.25755   1.26050   1.26677   1.26905
 Alpha virt. eigenvalues --    1.27041   1.28041   1.28419   1.28628   1.28706
 Alpha virt. eigenvalues --    1.28837   1.29064   1.29249   1.29576   1.30145
 Alpha virt. eigenvalues --    1.30320   1.30446   1.30832   1.31002   1.31123
 Alpha virt. eigenvalues --    1.32096   1.32463   1.32753   1.33043   1.33243
 Alpha virt. eigenvalues --    1.33445   1.33793   1.34029   1.34155   1.34257
 Alpha virt. eigenvalues --    1.34470   1.34497   1.34768   1.34992   1.35196
 Alpha virt. eigenvalues --    1.35330   1.35423   1.35610   1.36037   1.36237
 Alpha virt. eigenvalues --    1.36345   1.36505   1.36861   1.37057   1.37303
 Alpha virt. eigenvalues --    1.37537   1.37711   1.37968   1.38311   1.38440
 Alpha virt. eigenvalues --    1.38658   1.38851   1.39031   1.39160   1.39352
 Alpha virt. eigenvalues --    1.39612   1.39864   1.39983   1.40205   1.40587
 Alpha virt. eigenvalues --    1.40707   1.40809   1.40920   1.41071   1.41348
 Alpha virt. eigenvalues --    1.41562   1.41774   1.42047   1.42168   1.42504
 Alpha virt. eigenvalues --    1.42886   1.43317   1.43427   1.43537   1.43642
 Alpha virt. eigenvalues --    1.44232   1.44662   1.44984   1.45869   1.46522
 Alpha virt. eigenvalues --    1.46749   1.47508   1.47670   1.47862   1.48125
 Alpha virt. eigenvalues --    1.48622   1.49017   1.49452   1.50005   1.50443
 Alpha virt. eigenvalues --    1.50845   1.50999   1.51549   1.51919   1.53258
 Alpha virt. eigenvalues --    1.53472   1.55555   1.55770   1.55918   1.56075
 Alpha virt. eigenvalues --    1.56372   1.56712   1.57110   1.57237   1.57514
 Alpha virt. eigenvalues --    1.57732   1.58229   1.58918   1.59670   1.59806
 Alpha virt. eigenvalues --    1.60241   1.60672   1.60945   1.61233   1.61329
 Alpha virt. eigenvalues --    1.61445   1.61799   1.62702   1.62833   1.63149
 Alpha virt. eigenvalues --    1.64465   1.64816   1.65430   1.66181   1.67443
 Alpha virt. eigenvalues --    1.68105   1.68458   1.69513   1.70789   1.71218
 Alpha virt. eigenvalues --    1.71605   1.72109   1.72992   1.74331   1.74750
 Alpha virt. eigenvalues --    1.75418   1.75476   1.75662   1.76253   1.76995
 Alpha virt. eigenvalues --    1.77116   1.77328   1.77860   1.78085   1.79007
 Alpha virt. eigenvalues --    1.79120   1.79581   1.79868   1.80758   1.80894
 Alpha virt. eigenvalues --    1.81824   1.82098   1.82220   1.82804   1.83220
 Alpha virt. eigenvalues --    1.83640   1.83766   1.84492   1.84684   1.84909
 Alpha virt. eigenvalues --    1.85534   1.85658   1.86038   1.86563   1.86794
 Alpha virt. eigenvalues --    1.86994   1.87615   1.87948   1.88585   1.88833
 Alpha virt. eigenvalues --    1.89426   1.89929   1.90398   1.90630   1.90851
 Alpha virt. eigenvalues --    1.91070   1.91442   1.91933   1.92465   1.94008
 Alpha virt. eigenvalues --    1.94851   1.95015   1.95243   1.95797   1.96303
 Alpha virt. eigenvalues --    1.98959   1.99221   1.99288   1.99344   2.05561
 Alpha virt. eigenvalues --    2.07134   2.08262   2.08578   2.08834   2.09168
 Alpha virt. eigenvalues --    2.09460   2.09666   2.09733   2.10423   2.10984
 Alpha virt. eigenvalues --    2.11401   2.12008   2.12868   2.14835   2.15332
 Alpha virt. eigenvalues --    2.15957   2.17095   2.17501   2.17800   2.18241
 Alpha virt. eigenvalues --    2.20667   2.21572   2.21858   2.21968   2.22103
 Alpha virt. eigenvalues --    2.22787   2.23030   2.24299   2.25227   2.25913
 Alpha virt. eigenvalues --    2.26376   2.26569   2.27175   2.28327   2.28812
 Alpha virt. eigenvalues --    2.29521   2.29857   2.30237   2.35000   2.35337
 Alpha virt. eigenvalues --    2.36966   2.39422   2.41447   2.41739   2.44246
 Alpha virt. eigenvalues --    2.44322   2.51531   2.52362   2.58169   2.64993
 Alpha virt. eigenvalues --    2.65059   2.65237   2.66251   2.66346   2.66668
 Alpha virt. eigenvalues --    2.66917   2.66943   2.66996   2.67082   2.67127
 Alpha virt. eigenvalues --    2.67222   2.67336   2.67414   2.67444   2.67732
 Alpha virt. eigenvalues --    2.67800   2.68042   2.68064   2.68184   2.68525
 Alpha virt. eigenvalues --    2.68967   2.69175   2.69238   2.69509   2.69893
 Alpha virt. eigenvalues --    2.70257   2.70327   2.70494   2.70606   2.70790
 Alpha virt. eigenvalues --    2.70810   2.71433   2.71480   2.71624   2.71684
 Alpha virt. eigenvalues --    2.71712   2.72011   2.72546   2.72716   2.72892
 Alpha virt. eigenvalues --    2.72927   2.73054   2.73152   2.73290   2.73321
 Alpha virt. eigenvalues --    2.73591   2.73738   2.73812   2.73858   2.73866
 Alpha virt. eigenvalues --    2.74158   2.74267   2.74424   2.74582   2.74717
 Alpha virt. eigenvalues --    2.74835   2.75032   2.75394   2.75845   2.75994
 Alpha virt. eigenvalues --    2.76255   2.76313   2.76407   2.76674   2.76793
 Alpha virt. eigenvalues --    2.77003   2.77194   2.77247   2.78245   2.78404
 Alpha virt. eigenvalues --    2.78666   2.78827   2.79913   2.80022   2.80196
 Alpha virt. eigenvalues --    2.81212   2.82004   2.82041   2.82427   2.82453
 Alpha virt. eigenvalues --    2.82724   2.83139   2.83490   2.83589   2.83923
 Alpha virt. eigenvalues --    2.84111   2.84233   2.84424   2.84661   2.85542
 Alpha virt. eigenvalues --    2.86133   2.86349   2.86551   2.86750   2.86930
 Alpha virt. eigenvalues --    2.87045   2.87159   2.87395   2.87584   2.88631
 Alpha virt. eigenvalues --    2.88958   2.89722   2.89911   2.89965   2.90098
 Alpha virt. eigenvalues --    2.90290   2.90384   2.90412   2.90505   2.90632
 Alpha virt. eigenvalues --    2.90760   2.91820   2.92038   2.92173   2.92352
 Alpha virt. eigenvalues --    2.92720   2.92761   2.93099   2.93283   2.93349
 Alpha virt. eigenvalues --    2.93827   2.93955   2.94260   2.94299   2.94413
 Alpha virt. eigenvalues --    2.94525   2.94846   2.95264   2.95428   2.96017
 Alpha virt. eigenvalues --    2.96150   2.96418   2.96820   2.96979   2.97093
 Alpha virt. eigenvalues --    2.97310   2.97385   2.97595   2.97651   2.98016
 Alpha virt. eigenvalues --    2.98229   2.98343   2.98447   2.98787   2.99405
 Alpha virt. eigenvalues --    2.99678   2.99867   3.00000   3.00160   3.00528
 Alpha virt. eigenvalues --    3.00834   3.00988   3.01789   3.02388   3.03442
 Alpha virt. eigenvalues --    3.04416   3.04966   3.05040   3.05244   3.05435
 Alpha virt. eigenvalues --    3.06830   3.06989   3.07556   3.11496   3.12102
 Alpha virt. eigenvalues --    3.12263   3.12459   3.13036   3.13210   3.14279
 Alpha virt. eigenvalues --    3.14478   3.14560   3.17274   3.20476   3.21631
 Alpha virt. eigenvalues --    3.21813   3.24219   3.33187   3.39983   3.40668
 Alpha virt. eigenvalues --    3.41583   3.41786   3.44038   3.44128   3.44967
 Alpha virt. eigenvalues --    3.45356   3.45459   3.46497   3.46668   3.47132
 Alpha virt. eigenvalues --    3.49879   3.50642   3.51121   3.51673   3.52941
 Alpha virt. eigenvalues --    3.53001   3.53718   3.54073   3.54216   3.54349
 Alpha virt. eigenvalues --    3.54458   3.54713   3.55011   3.55827   3.56890
 Alpha virt. eigenvalues --    3.57181   3.57830   3.58664   3.59023   3.59799
 Alpha virt. eigenvalues --    3.59896   3.60550   3.61060   3.61437   3.62078
 Alpha virt. eigenvalues --    3.70609   3.75275  68.64662  68.65680  68.67010
 Alpha virt. eigenvalues --   68.69480  68.72978  68.73978  68.81655  68.82700
 Alpha virt. eigenvalues --   68.83229  68.86155  68.87213  68.88570 576.23088
 Alpha virt. eigenvalues --  576.24082 576.25386 576.27799 576.31317 576.32301
 Alpha virt. eigenvalues --  576.39833 576.40856 576.41368 576.44194 576.45231
 Alpha virt. eigenvalues --  576.46577
          Condensed to atoms (all electrons):
 Mulliken charges:
               1
     1  Cl  -0.905859
     2  C   -0.088341
     3  C    0.042978
     4  C   -0.082004
     5  C   -0.033595
     6  C   -0.035124
     7  C   -0.050308
     8  H    0.024660
     9  H    0.026447
    10  H    0.038645
    11  H    0.035422
    12  H    0.037939
    13  C   -0.078211
    14  C    0.043375
    15  H    0.007561
    16  H    0.028654
    17  H    0.031453
    18  O   -0.661089
    19  O   -0.659321
    20  O   -0.652985
    21  O   -0.660926
    22  W    1.735192
    23  W    1.674487
    24  W    1.685684
    25  W    1.695892
    26  W    1.671273
    27  W    1.725507
    28  W    1.616712
    29  W    1.682069
    30  O   -0.323097
    31  O   -0.370465
    32  O   -0.369721
    33  O   -0.368489
    34  O   -0.661861
    35  O   -0.669420
    36  O   -0.659862
    37  O   -0.662088
    38  O   -0.369227
    39  O   -0.369821
    40  O   -0.288052
    41  O   -0.368931
    42  O   -0.668766
    43  O   -0.661358
    44  O   -0.657555
    45  O   -0.663496
    46  O   -0.369621
    47  O   -0.322122
    48  O   -0.357338
    49  O   -0.368771
    50  W    1.668439
    51  W    1.671835
    52  W    1.669038
    53  W    1.679345
    54  O   -0.721838
    55  O   -0.705182
    56  O   -0.723675
    57  O   -0.719414
    58  O   -0.702418
    59  O   -0.724377
    60  O   -0.722804
    61  O   -0.720202
    62  O   -0.721974
    63  O   -0.706416
    64  O   -0.721286
    65  O   -0.725154
    66  O   -0.798770
    67  O   -0.797596
    68  O   -0.795785
    69  O   -0.810193
    70  K    0.859173
    71  K    0.858580
    72  K    0.854070
    73  V    1.210479
 Sum of Mulliken charges =  -1.00000
 Mulliken charges with hydrogens summed into heavy atoms:
               1
     1  Cl  -0.905859
     2  C   -0.063681
     3  C    0.042978
     4  C   -0.055557
     5  C    0.005050
     6  C    0.000299
     7  C   -0.012369
    13  C   -0.070650
    14  C    0.103481
    18  O   -0.661089
    19  O   -0.659321
    20  O   -0.652985
    21  O   -0.660926
    22  W    1.735192
    23  W    1.674487
    24  W    1.685684
    25  W    1.695892
    26  W    1.671273
    27  W    1.725507
    28  W    1.616712
    29  W    1.682069
    30  O   -0.323097
    31  O   -0.370465
    32  O   -0.369721
    33  O   -0.368489
    34  O   -0.661861
    35  O   -0.669420
    36  O   -0.659862
    37  O   -0.662088
    38  O   -0.369227
    39  O   -0.369821
    40  O   -0.288052
    41  O   -0.368931
    42  O   -0.668766
    43  O   -0.661358
    44  O   -0.657555
    45  O   -0.663496
    46  O   -0.369621
    47  O   -0.322122
    48  O   -0.357338
    49  O   -0.368771
    50  W    1.668439
    51  W    1.671835
    52  W    1.669038
    53  W    1.679345
    54  O   -0.721838
    55  O   -0.705182
    56  O   -0.723675
    57  O   -0.719414
    58  O   -0.702418
    59  O   -0.724377
    60  O   -0.722804
    61  O   -0.720202
    62  O   -0.721974
    63  O   -0.706416
    64  O   -0.721286
    65  O   -0.725154
    66  O   -0.798770
    67  O   -0.797596
    68  O   -0.795785
    69  O   -0.810193
    70  K    0.859173
    71  K    0.858580
    72  K    0.854070
    73  V    1.210479
 Electronic spatial extent (au):  <R**2>=         316778.8595
 Charge=             -1.0000 electrons
 Dipole moment (field-independent basis, Debye):
    X=             51.3269    Y=            -48.3028    Z=            -38.6771  Tot=             80.3961
 Quadrupole moment (field-independent basis, Debye-Ang):
   XX=          -1067.2191   YY=           -846.8336   ZZ=           -915.8995
   XY=            429.6592   XZ=            460.0847   YZ=           -446.3055
 Traceless Quadrupole moment (field-independent basis, Debye-Ang):
   XX=           -123.9017   YY=             96.4838   ZZ=             27.4179
   XY=            429.6592   XZ=            460.0847   YZ=           -446.3055
 Octapole moment (field-independent basis, Debye-Ang**2):
  XXX=          13628.8279  YYY=           -599.4681  ZZZ=         -19197.9944  XYY=           5716.8571
  XXY=          -3466.7574  XXZ=          -9555.1340  XZZ=           7370.1548  YZZ=          -3821.2043
  YYZ=          -8551.2355  XYZ=           4510.0840
 Hexadecapole moment (field-independent basis, Debye-Ang**3):
 XXXX=        -161648.7699 YYYY=         -47964.0452 ZZZZ=        -347533.8451 XXXY=          35384.4344
 XXXZ=         124796.5974 YYYX=          16486.8649 YYYZ=          -7647.9557 ZZZX=         128238.6082
 ZZZY=         -31549.8734 XXYY=         -52469.8405 XXZZ=        -109408.7493 YYZZ=         -94071.5366
 XXYZ=         -39894.5469 YYXZ=          57417.2733 ZZXY=          46963.4625
 N-N= 2.106174319197D+04 E-N=-5.921008035776D+04  KE= 6.765519988261D+03
   1 Symmetry operations used in ECPInt.
 ECPInt:  NShTT=  127765 NPrTT=  468030 LenC2=   96912 LenP2D=  221964.
 LDataN:  DoStor=T MaxTD1= 9 Len=  602
 D1PCM: PCM CHGder 1st derivatives, ID1Alg=3 FixD1E=F DoIter=F DoCFld=F I1PDM=0.
 Calling FoFJK, ICntrl=      2127 FMM=T ISym2X=0 I1Cent= 0 IOpClX= 0 NMat=1 NMatS=1 NMatT=0.
 Defaulting to unpruned grid for atomic number  74.
 Defaulting to unpruned grid for atomic number  74.
 Defaulting to unpruned grid for atomic number  74.
 Defaulting to unpruned grid for atomic number  74.
 Defaulting to unpruned grid for atomic number  74.
 Defaulting to unpruned grid for atomic number  74.
 Defaulting to unpruned grid for atomic number  74.
 Defaulting to unpruned grid for atomic number  74.
 Defaulting to unpruned grid for atomic number  74.
 Defaulting to unpruned grid for atomic number  74.
 Defaulting to unpruned grid for atomic number  74.
 Defaulting to unpruned grid for atomic number  74.
 Defaulting to unpruned grid for atomic number  74.
 Defaulting to unpruned grid for atomic number  74.
 Defaulting to unpruned grid for atomic number  74.
 Defaulting to unpruned grid for atomic number  74.
 Defaulting to unpruned grid for atomic number  74.
 Defaulting to unpruned grid for atomic number  74.
 Defaulting to unpruned grid for atomic number  74.
 Defaulting to unpruned grid for atomic number  74.
 Defaulting to unpruned grid for atomic number  74.
 Defaulting to unpruned grid for atomic number  74.
 Defaulting to unpruned grid for atomic number  74.
 Defaulting to unpruned grid for atomic number  74.
 Defaulting to unpruned grid for atomic number  74.
 Defaulting to unpruned grid for atomic number  74.
 Defaulting to unpruned grid for atomic number  74.
 Defaulting to unpruned grid for atomic number  74.
 Defaulting to unpruned grid for atomic number  74.
 Defaulting to unpruned grid for atomic number  74.
 Defaulting to unpruned grid for atomic number  74.
 Defaulting to unpruned grid for atomic number  74.
 Defaulting to unpruned grid for atomic number  74.
 Defaulting to unpruned grid for atomic number  74.
 Defaulting to unpruned grid for atomic number  74.
 Defaulting to unpruned grid for atomic number  74.
 Defaulting to unpruned grid for atomic number  74.
 Defaulting to unpruned grid for atomic number  74.
 Defaulting to unpruned grid for atomic number  74.
 Defaulting to unpruned grid for atomic number  74.
 Defaulting to unpruned grid for atomic number  74.
 Defaulting to unpruned grid for atomic number  74.
 Defaulting to unpruned grid for atomic number  74.
 Defaulting to unpruned grid for atomic number  74.
 Defaulting to unpruned grid for atomic number  74.
 Defaulting to unpruned grid for atomic number  74.
 Defaulting to unpruned grid for atomic number  74.
 Defaulting to unpruned grid for atomic number  74.
 Defaulting to unpruned grid for atomic number  74.
 Defaulting to unpruned grid for atomic number  74.
 Defaulting to unpruned grid for atomic number  74.
 Defaulting to unpruned grid for atomic number  74.
 Defaulting to unpruned grid for atomic number  74.
 Defaulting to unpruned grid for atomic number  74.
 Defaulting to unpruned grid for atomic number  74.
 Defaulting to unpruned grid for atomic number  74.
 -------------------------------------------------------------------
 Center     Atomic                   Forces (Hartrees/Bohr)
 Number     Number              X              Y              Z
 -------------------------------------------------------------------
      1       17          -0.005344388    0.012278887    0.003385000
      2        6           0.000498589   -0.000545719   -0.000504239
      3        6          -0.000293660   -0.001607034   -0.000201719
      4        6           0.000825381   -0.000661135    0.000736478
      5        6          -0.000135234   -0.000073485    0.000524308
      6        6          -0.000364749   -0.000139841    0.000814360
      7        6          -0.000276405   -0.000362971    0.000482983
      8        1          -0.000116411   -0.000317872   -0.000037249
      9        1          -0.000438384   -0.000635411   -0.000060330
     10        1          -0.000721767   -0.000257783    0.000514173
     11        1           0.000207919    0.000151224   -0.000167062
     12        1          -0.000213177    0.000393779    0.000214360
     13        6           0.005889669    0.006415726   -0.002320001
     14        6          -0.005136177   -0.007628318    0.000246739
     15        1           0.000645953   -0.002129459   -0.001054719
     16        1          -0.000232563   -0.000113585   -0.001039066
     17        1           0.000533401   -0.000872525    0.000337170
     18        8          -0.000048785   -0.000661170    0.000609734
     19        8           0.000010388    0.000453366    0.000702877
     20        8          -0.000243125   -0.000272919   -0.000733188
     21        8           0.000493634    0.000207167   -0.000684661
     22       74           0.001262293    0.004257877   -0.005126223
     23       74          -0.001353648   -0.004380052   -0.005036446
     24       74           0.002954058    0.003784668    0.005134225
     25       74          -0.003507966   -0.003855625    0.005263501
     26       74           0.003715663   -0.003058962   -0.004594296
     27       74          -0.003695701    0.003136249   -0.004423561
     28       74          -0.005247230    0.001781182    0.004555349
     29       74           0.005206559   -0.000976020    0.005155488
     30        8          -0.000321574   -0.002731610    0.002106696
     31        8           0.000144390    0.002951910    0.002216094
     32        8          -0.002223685   -0.001807416   -0.002287548
     33        8           0.002293878    0.001812446   -0.002565048
     34        8          -0.000648609   -0.000534825   -0.000867433
     35        8           0.000521612    0.000116732   -0.001131019
     36        8           0.000103424   -0.000871343    0.000963421
     37        8          -0.000059128    0.000709783    0.000876618
     38        8          -0.003507589   -0.001162064   -0.001321793
     39        8           0.003419100    0.001183323   -0.001519681
     40        8           0.003449730   -0.004672333   -0.000202137
     41        8          -0.001076988    0.003600225    0.001297790
     42        8          -0.000063239    0.001057547    0.000188841
     43        8           0.000458607   -0.001206041    0.000068308
     44        8           0.001601727   -0.000099114    0.000115923
     45        8          -0.000895059   -0.000851400   -0.000318951
     46        8          -0.001545039    0.002349146    0.002515395
     47        8           0.001634408   -0.001714408    0.002592537
     48        8           0.002956954   -0.000070990   -0.002925880
     49        8          -0.002907896   -0.000114263   -0.002757135
     50       74           0.005925546    0.002612188    0.001215021
     51       74          -0.005942358   -0.001879649    0.001229753
     52       74          -0.001937660    0.007660992   -0.001907683
     53       74           0.001930189   -0.006687787   -0.001499038
     54        8           0.000165556   -0.000435369   -0.000137541
     55        8          -0.000273691    0.000547738   -0.000400438
     56        8          -0.000320789   -0.000495426    0.000336012
     57        8           0.000736974    0.000037720    0.000143397
     58        8           0.000476304   -0.000376754   -0.000673946
     59        8           0.000449278   -0.000653717   -0.000189465
     60        8           0.000587587    0.000056014    0.000278068
     61        8          -0.000345409   -0.000137706    0.000443939
     62        8          -0.000804749    0.000120049   -0.000201181
     63        8           0.000796506   -0.000574268   -0.000296090
     64        8           0.000572228   -0.000662662    0.000114107
     65        8          -0.000504154    0.000356325    0.000227265
     66        8          -0.012270602   -0.003248040    0.008703463
     67        8           0.012565217    0.003475543    0.008823527
     68        8           0.004527091   -0.012569565   -0.008372848
     69        8          -0.004579977    0.011827529   -0.008716241
     70       19           0.000460149   -0.001741068   -0.001277542
     71       19           0.001618430    0.000715973    0.001240174
     72       19          -0.001772115   -0.000428430    0.001431158
     73       23          -0.000268711    0.000224823   -0.000252854
 -------------------------------------------------------------------
 Cartesian Forces:  Max     0.012569565 RMS     0.003145682

 GradGradGradGradGradGradGradGradGradGradGradGradGradGradGradGradGradGrad
 Berny optimization.
 Search for a local minimum.
 Step number   1 out of a maximum of    2
 All quantities printed in internal units (Hartrees-Bohrs-Radians)
 Second derivative matrix not updated -- first step.
 ITU=  0
     Eigenvalues ---    0.00000   0.00000   0.00000   0.00010   0.00091
     Eigenvalues ---    0.00093   0.00259   0.00575   0.00618   0.01650
     Eigenvalues ---    0.02005   0.02898   0.02967   0.03220   0.03425
     Eigenvalues ---    0.03465   0.03714   0.03731   0.04150   0.04531
     Eigenvalues ---    0.04614   0.04622   0.04635   0.04863   0.04870
     Eigenvalues ---    0.05027   0.05365   0.05571   0.05615   0.06402
     Eigenvalues ---    0.06449   0.06577   0.06784   0.06866   0.07054
     Eigenvalues ---    0.07334   0.07413   0.07624   0.08445   0.08462
     Eigenvalues ---    0.08776   0.08844   0.08957   0.09009   0.09756
     Eigenvalues ---    0.09986   0.10196   0.10440   0.10511   0.10620
     Eigenvalues ---    0.10949   0.10967   0.11565   0.11712   0.12051
     Eigenvalues ---    0.12095   0.12126   0.12567   0.12614   0.12776
     Eigenvalues ---    0.12892   0.12937   0.12974   0.13230   0.13251
     Eigenvalues ---    0.13950   0.13989   0.14457   0.14803   0.14817
     Eigenvalues ---    0.16773   0.16855   0.17034   0.17167   0.17608
     Eigenvalues ---    0.17693   0.18657   0.19815   0.19959   0.20322
     Eigenvalues ---    0.20912   0.21023   0.21937   0.22087   0.22195
     Eigenvalues ---    0.22865   0.23361   0.23492   0.23906   0.24041
     Eigenvalues ---    0.24682   0.24932   0.25124   0.26008   0.26138
     Eigenvalues ---    0.26360   0.26751   0.27686   0.27872   0.28044
     Eigenvalues ---    0.28586   0.28677   0.29197   0.29907   0.30048
     Eigenvalues ---    0.30848   0.30913   0.31052   0.31153   0.31304
     Eigenvalues ---    0.31358   0.31420   0.31687   0.31921   0.32860
     Eigenvalues ---    0.32982   0.33055   0.33218   0.33340   0.33830
     Eigenvalues ---    0.34026   0.35579   0.35817   0.36184   0.37125
     Eigenvalues ---    0.37610   0.37747   0.37795   0.38588   0.38909
     Eigenvalues ---    0.39307   0.39621   0.40603   0.40912   0.42434
     Eigenvalues ---    0.42875   0.43222   0.43647   0.44698   0.45137
     Eigenvalues ---    0.45903   0.46032   0.46455   0.48406   0.48838
     Eigenvalues ---    0.49052   0.49663   0.49926   0.50228   0.50444
     Eigenvalues ---    0.50573   0.50944   0.51500   0.52550   0.53284
     Eigenvalues ---    0.54340   0.54644   0.57564   0.60223   0.64588
     Eigenvalues ---    0.67588   0.77306   0.82332   0.83434   0.96959
     Eigenvalues ---    0.97290   0.99376   1.00123   1.02603   1.04534
     Eigenvalues ---    1.08112   1.12418   1.12949   1.13747   1.18777
     Eigenvalues ---    1.20813   1.21263   1.21655   1.22797   1.23633
     Eigenvalues ---    1.23966   1.27171   1.27478   1.27669   1.28517
     Eigenvalues ---    1.28719   1.31103   1.31782   1.45157   1.46000
     Eigenvalues ---    1.46383   1.48795   1.51910   1.52104   1.52648
     Eigenvalues ---    1.52783   1.55430   1.55524   1.56747   1.58423
     Eigenvalues ---    1.58632   1.59928   1.61424   1.66349   1.84291
     Eigenvalues ---    1.94747   1.98676   2.03151   2.06737   2.10796
     Eigenvalues ---    2.13080   2.18100   4.13659
 Eigenvalue     1 is   0.00D+00 Eigenvector:
                          Y11       Y12       Y6        Y10       Y7
   1                    0.17530   0.17530   0.17530   0.17530   0.17530
                          Y5        Y2        Y4        Y8        Y3
   1                    0.17530   0.17530   0.17530   0.17530   0.17530
 Eigenvalue     2 is   4.01D-07 Eigenvector:
                          Y16       X11       X16       Y11       Y14
   1                    0.33657   0.26149  -0.26134  -0.25325   0.24766
                          Y15       Y17       Y13       X12       X14
   1                    0.24015   0.20457   0.19463   0.18346  -0.18307
 Eigenvalue     3 is   2.67D-06 Eigenvector:
                          X9        X10       Y12       Y9        Y8
   1                    0.32623   0.29927   0.27319  -0.25877   0.24901
                          X12       Y10       X8        Y17       X15
   1                   -0.24570  -0.23541  -0.21991   0.21720   0.20252
 Quadratic step=2.794D+01 exceeds max=3.000D-01 adjusted using Lamda=-1.112D-02.
 Angle between NR and scaled steps=  31.83 degrees.
 Angle between quadratic step and forces=  73.65 degrees.
 Linear search not attempted -- first point.
 B after Tr=     0.001739    0.004842    0.001435
         Rot=    1.000000   -0.000130    0.000045    0.000182 Ang=  -0.03 deg.
 Variable       Old X    -DE/DX   Delta X   Delta X   Delta X     New X
                                 (Linear)    (Quad)   (Total)
    X1      -18.73650  -0.00534   0.00000  -0.00534  -0.00009 -18.73659
    Y1       14.51814   0.01228   0.00000   0.01233   0.01890  14.53704
    Z1       19.66985   0.00338   0.00000   0.00359   0.00709  19.67694
    X2      -15.71137   0.00050   0.00000   0.00525   0.00781 -15.70357
    Y2        8.03363  -0.00055   0.00000  -0.03389  -0.02931   8.00432
    Z2       23.12909  -0.00050   0.00000  -0.01023  -0.00814  23.12095
    X3      -17.13201  -0.00029   0.00000   0.01688   0.01940 -17.11262
    Y3        7.42376  -0.00161   0.00000  -0.05974  -0.05409   7.36967
    Z3       20.96867  -0.00020   0.00000  -0.01216  -0.01037  20.95830
    X4      -18.91188   0.00083   0.00000   0.00551   0.00730 -18.90458
    Y4        5.46417  -0.00066   0.00000  -0.04768  -0.04143   5.42273
    Z4       21.16381   0.00074   0.00000   0.01251   0.01363  21.17744
    X5      -19.24847  -0.00014   0.00000  -0.01242  -0.01130 -19.25978
    Y5        4.14514  -0.00007   0.00000  -0.01427  -0.00848   4.13666
    Z5       23.41260   0.00052   0.00000   0.03042   0.03118  23.44378
    X6      -17.81538  -0.00036   0.00000  -0.01367  -0.01251 -17.82790
    Y6        4.76299  -0.00014   0.00000   0.00305   0.00777   4.77075
    Z6       25.53757   0.00081   0.00000   0.02627   0.02732  25.56489
    X7      -16.04271  -0.00028   0.00000  -0.00993  -0.00805 -16.05077
    Y7        6.71057  -0.00036   0.00000  -0.00194   0.00217   6.71274
    Z7       25.37918   0.00048   0.00000   0.00805   0.00976  25.38895
    X8      -14.31831  -0.00012   0.00000   0.00443   0.00755 -14.31076
    Y8        9.55603  -0.00032   0.00000  -0.03381  -0.02972   9.52631
    Z8       23.05292  -0.00004   0.00000  -0.01905  -0.01645  23.03647
    X9      -20.02555  -0.00044   0.00000   0.00045   0.00220 -20.02335
    Y9        4.96625  -0.00064   0.00000  -0.05965  -0.05257   4.91369
    Z9       19.49617  -0.00006   0.00000   0.01799   0.01888  19.51505
   X10      -20.62139  -0.00072   0.00000  -0.02650  -0.02595 -20.64733
   Y10        2.60650  -0.00026   0.00000  -0.00250   0.00377   2.61027
   Z10       23.49763   0.00051   0.00000   0.04690   0.04714  23.54477
   X11      -18.06319   0.00021   0.00000  -0.01557  -0.01494 -18.07814
   Y11        3.71884   0.00015   0.00000   0.02009   0.02444   3.74328
   Z11       27.30133  -0.00017   0.00000   0.03452   0.03529  27.33662
   X12      -14.89867  -0.00021   0.00000  -0.01876  -0.01684 -14.91551
   Y12        7.19796   0.00039   0.00000   0.02120   0.02448   7.22244
   Z12       27.02890   0.00021   0.00000   0.00794   0.00989  27.03879
   X13      -16.84017   0.00589   0.00000   0.03087   0.03408 -16.80609
   Y13        8.72581   0.00642   0.00000  -0.08546  -0.07929   8.64651
   Z13       18.54708  -0.00232   0.00000  -0.03011  -0.02796  18.51912
   X14      -15.27203  -0.00514   0.00000   0.00584   0.00980 -15.26223
   Y14       10.66154  -0.00763   0.00000  -0.08416  -0.07843  10.58311
   Z14       18.08421   0.00025   0.00000  -0.03621  -0.03341  18.05079
   X15      -18.15834   0.00065   0.00000   0.05308   0.05621 -18.10213
   Y15        8.15083  -0.00213   0.00000  -0.12224  -0.11521   8.03562
   Z15       17.06161  -0.00105   0.00000  -0.03801  -0.03614  17.02548
   X16      -15.22723  -0.00023   0.00000   0.00165   0.00610 -15.22113
   Y16       11.57387  -0.00011   0.00000  -0.08590  -0.07971  11.49416
   Z16       16.23908  -0.00104   0.00000  -0.03998  -0.03695  16.20213
   X17      -13.95685   0.00053   0.00000  -0.00696  -0.00285 -13.95971
   Y17       11.40799  -0.00087   0.00000  -0.06609  -0.06120  11.34679
   Z17       19.48600   0.00034   0.00000  -0.03027  -0.02716  19.45884
   X18       -1.91882  -0.00005   0.00000  -0.00670  -0.00746  -1.92627
   Y18       -3.32647  -0.00066   0.00000  -0.00018   0.00172  -3.32476
   Z18       14.09412   0.00061   0.00000   0.00676   0.00716  14.10127
   X19      -15.88285   0.00001   0.00000   0.00215   0.00170 -15.88114
   Y19       -2.50917   0.00045   0.00000   0.01526   0.02223  -2.48693
   Z19       14.10276   0.00070   0.00000   0.00931   0.00866  14.11142
   X20      -13.33842  -0.00024   0.00000   0.00929   0.01016 -13.32826
   Y20        2.52353  -0.00027   0.00000   0.00925   0.01381   2.53735
   Z20       19.83324  -0.00073   0.00000  -0.01068  -0.00980  19.82344
   X21       -4.42247   0.00049   0.00000  -0.00487  -0.00793  -4.43041
   Y21       -8.21109   0.00021   0.00000   0.00675   0.00803  -8.20306
   Z21       19.96422  -0.00068   0.00000  -0.00706  -0.00815  19.95608
   X22       -6.48838   0.00126   0.00000   0.00261   0.00375  -6.48463
   Y22        1.42091   0.00426   0.00000   0.00907   0.01309   1.43400
   Z22       12.30095  -0.00513   0.00000  -0.01358  -0.01236  12.28859
   X23      -11.36040  -0.00135   0.00000  -0.00311  -0.00514 -11.36554
   Y23       -7.23291  -0.00438   0.00000   0.00188   0.00764  -7.22526
   Z23       12.45451  -0.00504   0.00000  -0.00989  -0.01136  12.44315
   X24       -6.86969   0.00295   0.00000   0.01199   0.01241  -6.85728
   Y24        1.74010   0.00378   0.00000   0.00569   0.00745   1.74755
   Z24       21.53928   0.00513   0.00000   0.01352   0.01479  21.55407
   X25      -10.91847  -0.00351   0.00000  -0.01345  -0.01634 -10.93480
   Y25       -7.30760  -0.00386   0.00000   0.00446   0.00767  -7.29993
   Z25       21.66892   0.00526   0.00000   0.01062   0.00917  21.67808
   X26       -4.66700   0.00372   0.00000  -0.00327  -0.00437  -4.67137
   Y26       -4.81281  -0.00306   0.00000  -0.00242   0.00100  -4.81181
   Z26       12.04848  -0.00459   0.00000  -0.00603  -0.00627  12.04221
   X27      -13.13585  -0.00370   0.00000  -0.00253  -0.00223 -13.13808
   Y27       -0.99871   0.00314   0.00000   0.01650   0.02303  -0.97569
   Z27       11.99686  -0.00442   0.00000  -0.00407  -0.00408  11.99277
   X28      -12.91258  -0.00525   0.00000  -0.00556  -0.00598 -12.91856
   Y28       -0.47943   0.00178   0.00000   0.00856   0.01243  -0.46700
   Z28       21.92171   0.00456   0.00000   0.00526   0.00540  21.92712
   X29       -4.85722   0.00521   0.00000   0.00417   0.00206  -4.85516
   Y29       -5.08433  -0.00098   0.00000   0.00579   0.00670  -5.07763
   Z29       21.97819   0.00516   0.00000   0.00730   0.00698  21.98516
   X30       -6.06202  -0.00032   0.00000   0.01362   0.01579  -6.04623
   Y30        3.69590  -0.00273   0.00000  -0.00237   0.00206   3.69796
   Z30       10.10533   0.00211   0.00000  -0.01398  -0.01214  10.09320
   X31      -11.59572   0.00014   0.00000  -0.01223  -0.01493 -11.61065
   Y31       -9.62087   0.00295   0.00000   0.01056   0.01696  -9.60391
   Z31       10.31872   0.00222   0.00000  -0.00912  -0.01123  10.30749
   X32       -5.10507  -0.00222   0.00000   0.00145   0.00226  -5.10281
   Y32        3.34397  -0.00181   0.00000   0.00564   0.00621   3.35017
   Z32       23.69261  -0.00229   0.00000   0.01259   0.01443  23.70705
   X33      -12.66756   0.00229   0.00000  -0.00422  -0.00787 -12.67542
   Y33       -8.84228   0.00181   0.00000   0.00447   0.00774  -8.83454
   Z33       23.88450  -0.00257   0.00000   0.00825   0.00624  23.89074
   X34       -5.09319  -0.00065   0.00000  -0.00713  -0.00695  -5.10014
   Y34       -1.63226  -0.00053   0.00000  -0.00194   0.00202  -1.63024
   Z34       10.59225  -0.00087   0.00000  -0.00809  -0.00755  10.58471
   X35      -12.69579   0.00052   0.00000   0.00171   0.00092 -12.69487
   Y35       -4.28921   0.00012   0.00000   0.01316   0.01986  -4.26934
   Z35       10.67045  -0.00113   0.00000  -0.00631  -0.00713  10.66332
   X36      -10.05983   0.00010   0.00000   0.00303   0.00305 -10.05678
   Y36        1.07466  -0.00087   0.00000  -0.00061   0.00185   1.07650
   Z36       23.34473   0.00096   0.00000   0.00821   0.00901  23.35374
   X37       -7.68817  -0.00006   0.00000  -0.00473  -0.00753  -7.69570
   Y37       -6.63719   0.00071   0.00000   0.01131   0.01289  -6.62431
   Z37       23.43054   0.00088   0.00000   0.00697   0.00599  23.43652
   X38        0.56840  -0.00351   0.00000   0.00040   0.00054   0.56894
   Y38       -0.01058  -0.00116   0.00000   0.00538   0.00547  -0.00511
   Z38       17.54999  -0.00132   0.00000  -0.00340  -0.00191  17.54808
   X39      -18.37458   0.00342   0.00000  -0.00507  -0.00700 -18.38158
   Y39       -5.69489   0.00118   0.00000   0.01108   0.01804  -5.67684
   Z39       17.66656  -0.00152   0.00000  -0.00426  -0.00596  17.66060
   X40      -12.15440   0.00345   0.00000   0.04725   0.04987 -12.10453
   Y40        6.46009  -0.00467   0.00000   0.01156   0.01659   6.47668
   Z40       16.33381  -0.00020   0.00000  -0.01406  -0.01205  16.32176
   X41       -5.59768  -0.00108   0.00000  -0.01030  -0.01450  -5.61218
   Y41      -12.19037   0.00360   0.00000   0.00198   0.00459 -12.18577
   Z41       16.50756   0.00130   0.00000   0.00193  -0.00030  16.50726
   X42       -3.43225  -0.00006   0.00000  -0.00135  -0.00036  -3.43261
   Y42        1.45784   0.00106   0.00000   0.00881   0.01124   1.46908
   Z42       14.15683   0.00019   0.00000   0.00039   0.00189  14.15873
   X43      -14.38510   0.00046   0.00000  -0.00045  -0.00267 -14.38777
   Y43       -7.29865  -0.00121   0.00000   0.00412   0.01051  -7.28814
   Z43       14.29775   0.00007   0.00000   0.00102  -0.00074  14.29701
   X44       -8.60481   0.00160   0.00000   0.02015   0.02163  -8.58318
   Y44        4.18483  -0.00010   0.00000   0.00348   0.00634   4.19117
   Z44       19.69434   0.00012   0.00000   0.00243   0.00417  19.69850
   X45       -9.17707  -0.00090   0.00000  -0.01530  -0.01894  -9.19601
   Y45       -9.82987  -0.00085   0.00000   0.00388   0.00692  -9.82295
   Z45       19.87951  -0.00032   0.00000  -0.00126  -0.00320  19.87631
   X46       -3.11874  -0.00155   0.00000  -0.00067  -0.00222  -3.12096
   Y46       -6.58069   0.00235   0.00000   0.00734   0.01077  -6.56992
   Z46        9.85770   0.00252   0.00000  -0.00263  -0.00318   9.85452
   X47      -14.77469   0.00163   0.00000  -0.01028  -0.00923 -14.78392
   Y47        0.51496  -0.00171   0.00000   0.00870   0.01642   0.53138
   Z47        9.71699   0.00259   0.00000   0.00528   0.00551   9.72250
   X48      -15.19292   0.00296   0.00000  -0.00174  -0.00232 -15.19524
   Y48       -0.35248  -0.00007   0.00000   0.01896   0.02308  -0.32941
   Z48       24.17382  -0.00293   0.00000  -0.00066  -0.00069  24.17313
   X49       -2.53073  -0.00291   0.00000  -0.00108  -0.00346  -2.53419
   Y49       -5.27085  -0.00011   0.00000  -0.00493  -0.00543  -5.27627
   Z49       24.18590  -0.00276   0.00000   0.00229   0.00213  24.18803
   X50       -2.37633   0.00593   0.00000   0.00366   0.00352  -2.37281
   Y50       -0.98452   0.00261   0.00000   0.00828   0.00966  -0.97486
   Z50       16.71337   0.00122   0.00000   0.00619   0.00716  16.72053
   X51      -15.43524  -0.00594   0.00000  -0.00733  -0.00884 -15.44408
   Y51       -4.73547  -0.00188   0.00000   0.00688   0.01300  -4.72248
   Z51       16.79338   0.00123   0.00000   0.00638   0.00519  16.79858
   X52      -11.24938  -0.00194   0.00000   0.01989   0.02137 -11.22801
   Y52        3.51248   0.00766   0.00000   0.01442   0.01892   3.53140
   Z52       17.10020  -0.00191   0.00000  -0.00901  -0.00768  17.09251
   X53       -6.54136   0.00193   0.00000  -0.00823  -0.01142  -6.55278
   Y53       -9.22770  -0.00669   0.00000  -0.00233   0.00042  -9.22728
   Z53       17.31673  -0.00150   0.00000  -0.00626  -0.00781  17.30892
   X54       -8.01786   0.00017   0.00000  -0.00167  -0.00309  -8.02095
   Y54       -5.82040  -0.00044   0.00000  -0.00405   0.00074  -5.81966
   Z54       11.50232  -0.00014   0.00000  -0.01255  -0.01336  11.48897
   X55       -9.77328  -0.00027   0.00000  -0.00470  -0.00402  -9.77730
   Y55       -0.08629   0.00055   0.00000   0.02101   0.02647  -0.05982
   Z55       11.40296  -0.00040   0.00000  -0.01517  -0.01464  11.38832
   X56      -11.66733  -0.00032   0.00000  -0.01435  -0.01603 -11.68335
   Y56       -3.76963  -0.00050   0.00000   0.00438   0.00765  -3.76198
   Z56       22.50179   0.00034   0.00000   0.01397   0.01337  22.51516
   X57       -6.05897   0.00074   0.00000   0.01284   0.01189  -6.04708
   Y57       -1.80281   0.00004   0.00000   0.00723   0.00844  -1.79437
   Z57       22.51359   0.00014   0.00000   0.01528   0.01570  22.52928
   X58       -8.31920   0.00048   0.00000   0.01311   0.01460  -8.30460
   Y58        3.01056  -0.00038   0.00000   0.01251   0.01654   3.02710
   Z58       14.85707  -0.00067   0.00000  -0.01346  -0.01199  14.84508
   X59       -9.45918   0.00045   0.00000  -0.00526  -0.00809  -9.46727
   Y59       -8.79263  -0.00065   0.00000  -0.00660  -0.00219  -8.79482
   Z59       15.01415  -0.00019   0.00000  -0.01157  -0.01327  15.00088
   X60       -4.45448   0.00059   0.00000   0.01351   0.01393  -4.44055
   Y60        1.11203   0.00006   0.00000   0.01042   0.01195   1.12398
   Z60       19.02037   0.00028   0.00000   0.01371   0.01504  19.03540
   X61      -13.33130  -0.00035   0.00000  -0.01620  -0.01867 -13.34997
   Y61       -6.79479  -0.00014   0.00000   0.00264   0.00739  -6.78740
   Z61       19.13300   0.00044   0.00000   0.01243   0.01089  19.14389
   X62       -4.86580  -0.00080   0.00000  -0.00775  -0.01002  -4.87582
   Y62       -7.29631   0.00012   0.00000  -0.00470  -0.00193  -7.29824
   Z62       14.86414  -0.00020   0.00000  -0.00832  -0.00922  14.85492
   X63      -12.95633   0.00080   0.00000   0.01224   0.01319 -12.94314
   Y63        1.48030  -0.00057   0.00000   0.01861   0.02435   1.50466
   Z63       14.75472  -0.00030   0.00000  -0.00836  -0.00771  14.74701
   X64      -14.82244   0.00057   0.00000  -0.00773  -0.00854 -14.83098
   Y64       -2.20038  -0.00066   0.00000   0.00553   0.01080  -2.18958
   Z64       19.19366   0.00011   0.00000   0.00795   0.00747  19.20113
   X65       -2.98152  -0.00050   0.00000   0.00510   0.00383  -2.97769
   Y65       -3.48219   0.00036   0.00000   0.00911   0.01007  -3.47212
   Z65       19.17538   0.00023   0.00000   0.00893   0.00919  19.18457
   X66       -6.42500  -0.01227   0.00000  -0.02311  -0.02352  -6.44851
   Y66       -2.12611  -0.00325   0.00000   0.00075   0.00401  -2.12210
   Z66       15.15870   0.00870   0.00000   0.01294   0.01324  15.17194
   X67      -11.37614   0.01257   0.00000   0.01899   0.01801 -11.35813
   Y67       -3.68821   0.00348   0.00000   0.01275   0.01779  -3.67042
   Z67       15.21190   0.00882   0.00000   0.01438   0.01383  15.22573
   X68       -9.69103   0.00453   0.00000   0.01154   0.01143  -9.67960
   Y68       -0.38730  -0.01257   0.00000  -0.01387  -0.01037  -0.39766
   Z68       18.79462  -0.00837   0.00000  -0.01042  -0.00996  18.78466
   X69       -8.05358  -0.00458   0.00000  -0.01369  -0.01559  -8.06917
   Y69       -5.31277   0.01183   0.00000   0.02417   0.02707  -5.28570
   Z69       18.85269  -0.00872   0.00000  -0.01194  -0.01261  18.84008
   X70       -6.12589   0.00046   0.00000  -0.00522  -0.00865  -6.13455
   Y70      -11.50299  -0.00174   0.00000  -0.00500  -0.00070 -11.50370
   Z70       10.75123  -0.00128   0.00000  -0.01167  -0.01377  10.73746
   X71       -0.34151   0.00162   0.00000   0.01158   0.01122  -0.33029
   Y71        0.04708   0.00072   0.00000   0.00655   0.00548   0.05255
   Z71       23.29324   0.00124   0.00000   0.01232   0.01374  23.30698
   X72      -17.45277  -0.00177   0.00000  -0.01580  -0.01820 -17.47096
   Y72       -5.52481  -0.00043   0.00000   0.00851   0.01366  -5.51116
   Z72       23.39760   0.00143   0.00000   0.01066   0.00908  23.40668
   X73       -8.89150  -0.00027   0.00000  -0.00209  -0.00294  -8.89444
   Y73       -2.87192   0.00022   0.00000   0.00611   0.00979  -2.86212
   Z73       17.00019  -0.00025   0.00000   0.00120   0.00109  17.00127
         Item               Value     Threshold  Converged?
 Maximum Force            0.012570     0.000450     NO 
 RMS     Force            0.003146     0.000300     NO 
 Maximum Displacement     0.115210     0.001800     NO 
 RMS     Displacement     0.020058     0.001200     NO 
 Predicted change in Energy=-2.360175D-03
 GradGradGradGradGradGradGradGradGradGradGradGradGradGradGradGradGradGrad

 Unable to Open any file for archive entry.
 1\1\GINC-X11P1N2\Force\RwB97XD\def2SVP\C8H8Cl1K3O40V1W12(1-)\MAYUMIAO\
 01-Jun-2024\0\\# def2svp wb97xd scrf=(smd,solvent=acetonitrile) g09def
 ault scf=(xqc,maxcycle=64) force guess=read nosymm\\Title Card\\-1,1\C
 l,-9.91492733,7.68266676,10.408838\C,-8.31409958,4.25121586,12.2393865
 7\C,-9.06587085,3.9284861,11.09614382\C,-10.00773521,2.89151177,11.199
 40578\C,-10.18585271,2.19351327,12.38941467\C,-9.42749569,2.52046462,1
 3.51389953\C,-8.48943905,3.55108135,13.43008574\H,-7.57692161,5.056831
 28,12.19907831\H,-10.59706467,2.62802689,10.31692652\H,-10.91236766,1.
 3793027,12.43441138\H,-9.55862984,1.96792682,14.44724246\H,-7.88403511
 ,3.80899556,14.30307807\C,-8.9114356,4.61749728,9.81469252\C,-8.081608
 84,5.64184616,9.56975055\H,-9.60897855,4.31323451,9.02861758\H,-8.0579
 0219,6.12462727,8.59334973\H,-7.38564792,6.03684693,10.31154924\O,-1.0
 1539435,-1.760294,7.45828456\O,-8.40484146,-1.32779357,7.46286073\O,-7
 .05838858,1.33539676,10.49529721\O,-2.3402718,-4.34512259,10.56461246\
 W,-3.43350301,0.75191272,6.50938256\W,-6.0116663,-3.82748876,6.5906445
 2\W,-3.63528192,0.92082158,11.39809491\W,-5.77780388,-3.86701345,11.46
 669622\W,-2.46966873,-2.54683137,6.37577915\W,-6.95119328,-0.52849581,
 6.3484624\W,-6.83304073,-0.25370355,11.60047001\W,-2.57033181,-2.69051
 173,11.63035467\O,-3.20788189,1.95578412,5.34751256\O,-6.13619061,-5.0
 9114423,5.46043294\O,-2.70148873,1.76955059,12.53759142\O,-6.7033827,-
 4.67913368,12.63913101\O,-2.69520268,-0.86375315,5.60517762\O,-6.71832
 406,-2.26974999,5.64656088\O,-5.32343072,0.56868313,12.35350007\O,-4.0
 6840199,-3.51225137,12.39890548\O,0.30078355,-0.00560041,9.28705696\O,
 -9.72340642,-3.01360395,9.34874109\O,-6.43183198,3.41853157,8.64348064
 \O,-2.96216304,-6.45086522,8.73542336\O,-1.81627001,0.77145691,7.49147
 441\O,-7.61226893,-3.8622767,7.56604509\O,-4.55347105,2.21451598,10.42
 179373\O,-4.85629536,-5.20174497,10.51978606\O,-1.65036542,-3.48234969
 ,5.21647156\O,-7.81842711,0.27250662,5.14201174\O,-8.03974854,-0.18652
 613,12.79223659\O,-1.33920579,-2.78921231,12.7986279\W,-1.25749916,-0.
 52098506,8.84433366\W,-8.16797765,-2.50590463,8.88667574\W,-5.95291394
 ,1.85872232,9.04903544\W,-3.46153689,-4.88308782,9.16362049\O,-4.24286
 82,-3.08002433,6.08676713\O,-5.17179675,-0.04566261,6.03418464\O,-6.17
 408305,-1.99480079,11.9074352\O,-3.20626877,-0.95400421,11.91367686\O,
 -4.40233251,1.59312058,7.86202283\O,-5.00558172,-4.65285702,7.94514741
 \O,-2.35721186,0.58846062,10.06514373\O,-7.05461896,-3.59564988,10.124
 7468\O,-2.5748722,-3.86104157,7.86576433\O,-6.85619667,0.78334306,7.80
 786204\O,-7.84370001,-1.16439277,10.15684621\O,-1.57775433,-1.84269597
 ,10.14717298\O,-3.39996171,-1.12508881,8.02164042\O,-6.01999563,-1.951
 71638,8.04978954\O,-5.12827418,-0.20494816,9.9456863\O,-4.2617708,-2.8
 1139535,9.97641587\K,-3.24168311,-6.08712232,5.68930363\K,-0.18072165,
 0.02491153,12.32624989\K,-9.23560712,-2.92360534,12.38147492\V,-4.7051
 7938,-1.51975255,8.99611099\\Version=ES64L-G16RevC.01\HF=-7327.6983789
 \RMSD=4.538e-09\RMSF=3.146e-03\Dipole=10.4050228,-20.7912756,2.475911\
 Quadrupole=-92.1179082,71.7333539,20.3845543,319.4411326,342.0616823,-
 331.8172353\PG=C01 [X(C8H8Cl1K3O40V1W12)]\\@
 The archive entry for this job was punched.


 THERE IS NOTHING NOBLE IN BEING SUPERIOR TO SOME OTHER MAN.
 TRUE NOBILITY IS BEING SUPERIOR TO YOUR FORMER SELF.

                                                   -- HINDU PROVERB
 Job cpu time:       0 days 10 hours 15 minutes 18.9 seconds.
 Elapsed time:       0 days  0 hours 11 minutes 40.3 seconds.
 File lengths (MBytes):  RWF=   1243 Int=      0 D2E=      0 Chk=    249 Scr=      1
 Normal termination of Gaussian 16 at Sat Jun  1 15:28:21 2024.
