 Entering Gaussian System, Link 0=g16
 Input=JOBS/9_A.gjf
 Output=JOBS/9_A.log
 Initial command:
 /data/app/gaussian/C01-avx2//g16/l1.exe "/tmp/Gau-592587.inp" -scrdir="/tmp/"
 Entering Link 1 = /data/app/gaussian/C01-avx2//g16/l1.exe PID=    592588.
  
 Copyright (c) 1988-2019, Gaussian, Inc.  All Rights Reserved.
  
 This is part of the Gaussian(R) 16 program.  It is based on
 the Gaussian(R) 09 system (copyright 2009, Gaussian, Inc.),
 the Gaussian(R) 03 system (copyright 2003, Gaussian, Inc.),
 the Gaussian(R) 98 system (copyright 1998, Gaussian, Inc.),
 the Gaussian(R) 94 system (copyright 1995, Gaussian, Inc.),
 the Gaussian 92(TM) system (copyright 1992, Gaussian, Inc.),
 the Gaussian 90(TM) system (copyright 1990, Gaussian, Inc.),
 the Gaussian 88(TM) system (copyright 1988, Gaussian, Inc.),
 the Gaussian 86(TM) system (copyright 1986, Carnegie Mellon
 University), and the Gaussian 82(TM) system (copyright 1983,
 Carnegie Mellon University). Gaussian is a federally registered
 trademark of Gaussian, Inc.
  
 This software contains proprietary and confidential information,
 including trade secrets, belonging to Gaussian, Inc.
  
 This software is provided under written license and may be
 used, copied, transmitted, or stored only in accord with that
 written license.
  
 The following legend is applicable only to US Government
 contracts under FAR:
  
                    RESTRICTED RIGHTS LEGEND
  
 Use, reproduction and disclosure by the US Government is
 subject to restrictions as set forth in subparagraphs (a)
 and (c) of the Commercial Computer Software - Restricted
 Rights clause in FAR 52.227-19.
  
 Gaussian, Inc.
 340 Quinnipiac St., Bldg. 40, Wallingford CT 06492
  
  
 ---------------------------------------------------------------
 Warning -- This program may not be used in any manner that
 competes with the business of Gaussian, Inc. or will provide
 assistance to any competitor of Gaussian, Inc.  The licensee
 of this program is prohibited from giving any competitor of
 Gaussian, Inc. access to this program.  By using this program,
 the user acknowledges that Gaussian, Inc. is engaged in the
 business of creating and licensing software in the field of
 computational chemistry and represents and warrants to the
 licensee that it is not a competitor of Gaussian, Inc. and that
 it will not use this program in any manner prohibited above.
 ---------------------------------------------------------------
  

 Cite this work as:
 Gaussian 16, Revision C.01,
 M. J. Frisch, G. W. Trucks, H. B. Schlegel, G. E. Scuseria, 
 M. A. Robb, J. R. Cheeseman, G. Scalmani, V. Barone, 
 G. A. Petersson, H. Nakatsuji, X. Li, M. Caricato, A. V. Marenich, 
 J. Bloino, B. G. Janesko, R. Gomperts, B. Mennucci, H. P. Hratchian, 
 J. V. Ortiz, A. F. Izmaylov, J. L. Sonnenberg, D. Williams-Young, 
 F. Ding, F. Lipparini, F. Egidi, J. Goings, B. Peng, A. Petrone, 
 T. Henderson, D. Ranasinghe, V. G. Zakrzewski, J. Gao, N. Rega, 
 G. Zheng, W. Liang, M. Hada, M. Ehara, K. Toyota, R. Fukuda, 
 J. Hasegawa, M. Ishida, T. Nakajima, Y. Honda, O. Kitao, H. Nakai, 
 T. Vreven, K. Throssell, J. A. Montgomery, Jr., J. E. Peralta, 
 F. Ogliaro, M. J. Bearpark, J. J. Heyd, E. N. Brothers, K. N. Kudin, 
 V. N. Staroverov, T. A. Keith, R. Kobayashi, J. Normand, 
 K. Raghavachari, A. P. Rendell, J. C. Burant, S. S. Iyengar, 
 J. Tomasi, M. Cossi, J. M. Millam, M. Klene, C. Adamo, R. Cammi, 
 J. W. Ochterski, R. L. Martin, K. Morokuma, O. Farkas, 
 J. B. Foresman, and D. J. Fox, Gaussian, Inc., Wallingford CT, 2019.
 
 ******************************************
 Gaussian 16:  ES64L-G16RevC.01  3-Jul-2019
                 1-Jun-2024 
 ******************************************
 %chk=a.chk
 %nprocshared=56
 Will use up to   56 processors via shared memory.
 %mem=96gb
 ----------------------------------------------------------------------
 # def2svp wb97xd scrf=(smd,solvent=acetonitrile) g09default scf=(xqc,m
 axcycle=64) force guess=read nosymm
 ----------------------------------------------------------------------
 1/10=7,30=1,38=1,158=3,167=1/1,3;
 2/12=2,15=1,17=6,18=5,40=1/2;
 3/5=43,7=101,11=2,25=1,27=10,30=1,70=32201,71=1,72=2,74=-58,75=-4,116=-2,158=3/1,2,3;
 4/5=1,60=-1/1;
 5/5=2,7=64,8=3,13=1,38=6,53=2,87=10/2,8;
 6/7=2,8=2,9=2,10=2,28=1,87=10/1;
 7/29=1,30=1,87=10/1,2,3,16;
 1/10=7,30=1,158=3,167=1/3;
 99//99;
 Using 2006 physical constants.
 ----------
 Title Card
 ----------
 Symbolic Z-matrix:
 Charge = -1 Multiplicity = 1
 17                   -9.92916   7.71795   10.41819 
 6                    -8.31318   4.24981   12.23877 
 6                    -9.06353   3.92442   11.09447 
 6                    -10.00751   2.88935   11.19998 
 6                    -10.18668   2.19365   12.39147 
 6                    -9.4285    2.52012   13.51496 
 6                    -8.48996   3.55141   13.43134 
 1                    -7.57766   5.05571   12.19926 
 1                    -10.5972   2.62698   10.3182 
 1                    -10.9133   1.37937   12.4352 
 1                    -9.55823   1.96717   14.44846 
 1                    -7.88474   3.80971   14.30305 
 6                    -8.91001   4.61533   9.81355 
 6                    -8.07968   5.63718   9.56593 
 1                    -9.60689   4.30812   9.02482 
 1                    -8.0597    6.12472   8.59106 
 1                    -7.38697   6.03383   10.31204 
 8                    -1.01759  -1.76156   7.46057 
 8                    -8.40248  -1.32664   7.4647 
 8                    -7.05768   1.33416   10.49261 
 8                    -2.34051  -4.34294   10.56255 
 74                   -3.43444   0.74954   6.50773 
 74                   -6.00998  -3.82604   6.58944 
 74                   -3.63506   0.91823   11.39978 
 74                   -5.77819  -3.86577   11.4677 
 74                   -2.46965  -2.5474    6.37748 
 74                   -6.95092  -0.52837   6.35012 
 74                   -6.83381  -0.25442   11.59898 
 74                   -2.56925  -2.69039   11.62943 
 8                    -3.20764   1.95647   5.34673 
 8                    -6.13644  -5.09068   5.46058 
 8                    -2.70185   1.76971   12.53725 
 8                    -6.70317  -4.67915   12.63864 
 8                    -2.69698  -0.86433   5.60442 
 8                    -6.71718  -2.26849   5.64535 
 8                    -5.32314   0.56633   12.3548 
 8                    -4.06868  -3.5104    12.39981 
 8                     0.30019  -0.00646   9.28633 
 8                    -9.72312  -3.01267   9.34767 
 8                    -6.42593   3.41792   8.63871 
 8                    -2.96162  -6.45006   8.73615 
 8                    -1.8179    0.77325   7.49161 
 8                    -7.61051  -3.86405   7.5667 
 8                    -4.55116   2.2133    10.42097 
 8                    -4.85838  -5.20206   10.51896 
 8                    -1.65064  -3.48136   5.21626 
 8                    -7.81871   0.27317   5.14089 
 8                    -8.0389   -0.18695   12.79209 
 8                    -1.33984  -2.7895    12.79888 
 74                   -1.25986  -0.51865   8.84552 
 74                   -8.16568  -2.50797   8.88731 
 74                   -5.94819   1.8574    9.04727 
 74                   -3.46421  -4.88298   9.16224 
 8                    -4.24211  -3.08361   6.08398 
 8                    -5.17315  -0.04185   6.03087 
 8                    -6.17763  -1.99632   11.91055 
 8                    -3.20213  -0.95245   11.91631 
 8                    -4.40259   1.59579   7.85904 
 8                    -5.00418  -4.65722   7.94257 
 8                    -2.35313   0.59014   10.06781 
 8                    -7.05844  -3.59731   10.12748 
 8                    -2.57545  -3.86275   7.86372 
 8                    -6.85538   0.78468   7.80639 
 8                    -7.84471  -1.1659    10.15892 
 8                    -1.57644  -1.84155   10.14909 
 8                    -3.39803  -1.12315   8.01871 
 8                    -6.02192  -1.95478   8.04775 
 8                    -5.12688  -0.2026    9.94974 
 8                    -4.2625   -2.81455   9.97941 
 19                   -3.24036  -6.09192   5.68579 
 19                   -0.17614   0.02695   12.3297 
 19                   -9.24064  -2.92487   12.38551 
 23                   -4.70497  -1.5201    8.99556 
 

 GradGradGradGradGradGradGradGradGradGradGradGradGradGradGradGradGradGrad
 Berny optimization.
 Initialization pass.
 Trust Radius=3.00D-01 FncErr=1.00D-07 GrdErr=1.00D-07 EigMax=2.50D+02 EigMin=1.00D-04
 Number of steps in this run=      2 maximum allowed number of steps=      2.
 GradGradGradGradGradGradGradGradGradGradGradGradGradGradGradGradGradGrad

 Symmetry turned off by external request.
 Stoichiometry    C8H8ClK3O40VW12(1-)
 Framework group  C1[X(C8H8ClK3O40VW12)]
 Deg. of freedom   213
 Full point group                 C1      NOp   1
                          Input orientation:                          
 ---------------------------------------------------------------------
 Center     Atomic      Atomic             Coordinates (Angstroms)
 Number     Number       Type             X           Y           Z
 ---------------------------------------------------------------------
      1         17           0       -9.929159    7.717946   10.418187
      2          6           0       -8.313181    4.249812   12.238767
      3          6           0       -9.063527    3.924421   11.094472
      4          6           0      -10.007512    2.889345   11.199975
      5          6           0      -10.186680    2.193649   12.391474
      6          6           0       -9.428499    2.520120   13.514962
      7          6           0       -8.489963    3.551408   13.431344
      8          1           0       -7.577660    5.055707   12.199257
      9          1           0      -10.597202    2.626982   10.318204
     10          1           0      -10.913303    1.379371   12.435202
     11          1           0       -9.558227    1.967171   14.448459
     12          1           0       -7.884736    3.809705   14.303046
     13          6           0       -8.910011    4.615335    9.813553
     14          6           0       -8.079677    5.637178    9.565931
     15          1           0       -9.606888    4.308119    9.024819
     16          1           0       -8.059701    6.124721    8.591058
     17          1           0       -7.386967    6.033825   10.312045
     18          8           0       -1.017590   -1.761562    7.460573
     19          8           0       -8.402477   -1.326637    7.464702
     20          8           0       -7.057684    1.334162   10.492609
     21          8           0       -2.340512   -4.342939   10.562549
     22         74           0       -3.434443    0.749537    6.507732
     23         74           0       -6.009975   -3.826040    6.589445
     24         74           0       -3.635063    0.918226   11.399776
     25         74           0       -5.778186   -3.865775   11.467704
     26         74           0       -2.469652   -2.547395    6.377483
     27         74           0       -6.950924   -0.528372    6.350120
     28         74           0       -6.833807   -0.254421   11.598985
     29         74           0       -2.569251   -2.690392   11.629431
     30          8           0       -3.207637    1.956466    5.346731
     31          8           0       -6.136438   -5.090683    5.460578
     32          8           0       -2.701849    1.769707   12.537246
     33          8           0       -6.703166   -4.679153   12.638640
     34          8           0       -2.696981   -0.864328    5.604424
     35          8           0       -6.717176   -2.268488    5.645350
     36          8           0       -5.323137    0.566330   12.354796
     37          8           0       -4.068677   -3.510403   12.399814
     38          8           0        0.300186   -0.006463    9.286332
     39          8           0       -9.723116   -3.012667    9.347670
     40          8           0       -6.425930    3.417917    8.638705
     41          8           0       -2.961624   -6.450058    8.736147
     42          8           0       -1.817899    0.773252    7.491609
     43          8           0       -7.610505   -3.864052    7.566701
     44          8           0       -4.551163    2.213296   10.420966
     45          8           0       -4.858382   -5.202056   10.518963
     46          8           0       -1.650637   -3.481364    5.216264
     47          8           0       -7.818707    0.273169    5.140891
     48          8           0       -8.038897   -0.186947   12.792090
     49          8           0       -1.339837   -2.789496   12.798882
     50         74           0       -1.259864   -0.518648    8.845517
     51         74           0       -8.165678   -2.507968    8.887306
     52         74           0       -5.948190    1.857395    9.047270
     53         74           0       -3.464207   -4.882980    9.162237
     54          8           0       -4.242115   -3.083614    6.083976
     55          8           0       -5.173154   -0.041845    6.030870
     56          8           0       -6.177634   -1.996321   11.910555
     57          8           0       -3.202132   -0.952454   11.916311
     58          8           0       -4.402588    1.595787    7.859035
     59          8           0       -5.004178   -4.657219    7.942570
     60          8           0       -2.353126    0.590136   10.067809
     61          8           0       -7.058441   -3.597309   10.127478
     62          8           0       -2.575445   -3.862754    7.863716
     63          8           0       -6.855384    0.784676    7.806388
     64          8           0       -7.844711   -1.165899   10.158923
     65          8           0       -1.576438   -1.841554   10.149088
     66          8           0       -3.398034   -1.123149    8.018709
     67          8           0       -6.021924   -1.954781    8.047752
     68          8           0       -5.126878   -0.202605    9.949738
     69          8           0       -4.262500   -2.814551    9.979408
     70         19           0       -3.240364   -6.091922    5.685786
     71         19           0       -0.176142    0.026949   12.329703
     72         19           0       -9.240644   -2.924869   12.385511
     73         23           0       -4.704973   -1.520101    8.995560
 ---------------------------------------------------------------------
 Rotational constants (GHZ):           0.0172403           0.0133740           0.0131627
 Standard basis: def2SVP (5D, 7F)
  1217 basis functions,  2313 primitive gaussians,  1337 cartesian basis functions
   321 alpha electrons      321 beta electrons
       nuclear repulsion energy     21056.0735231082 Hartrees.
 NAtoms=   73 NActive=   73 NUniq=   73 SFac= 1.00D+00 NAtFMM=   60 NAOKFM=T Big=T
 Integral buffers will be    131072 words long.
 Raffenetti 2 integral format.
 Two-electron integral symmetry is turned off.
 Nuclear repulsion after empirical dispersion term =    21055.7950967416 Hartrees.
 Force PCM accuracy= 1.00D-10.
 ------------------------------------------------------------------------------
 Polarizable Continuum Model (PCM)
 =================================
 Model                : PCM (using non-symmetric T matrix).
 Atomic radii         : SMD-Coulomb.
 Polarization charges : Total charges.
 Charge compensation  : None.
 Solution method      : On-the-fly selection.
 Cavity type          : VdW (van der Waals Surface) (Alpha=1.000).
 Cavity algorithm     : GePol (No added spheres)
                        Default sphere list used, NSphG=   73.
                        Lebedev-Laikov grids with approx.  5.0 points / Ang**2.
                        Smoothing algorithm: York/Karplus (Gamma=1.0000).
                        Polarization charges: spherical gaussians, with
                                              point-specific exponents (IZeta= 3).
                        Self-potential: point-specific (ISelfS= 7).
                        Self-field    : sphere-specific E.n sum rule (ISelfD= 2).
 1st derivatives      : Analytical E(r).r(x)/FMM algorithm (CHGder, D1EAlg=3).
                        Cavity 1st derivative terms included.
 Solvent              : Acetonitrile, Eps=  35.688000 Eps(inf)=   1.806874
 ------------------------------------------------------------------------------
 ------------------------------------------------------------------------------
 Atomic radii for non-electrostatic terms: SMD-CDS.
 ------------------------------------------------------------------------------
 Nuclear repulsion after PCM non-electrostatic terms =    21055.7892998021 Hartrees.
 One-electron integrals computed using PRISM.
   1 Symmetry operations used in ECPInt.
 ECPInt:  NShTT=  127765 NPrTT=  468030 LenC2=   96904 LenP2D=  221932.
 LDataN:  DoStor=T MaxTD1= 8 Len=  415
 NBasis=  1217 RedAO= T EigKep=  1.34D-04  NBF=  1217
 NBsUse=  1217 1.00D-06 EigRej= -1.00D+00 NBFU=  1217
 Defaulting to unpruned grid for atomic number  74.
 Defaulting to unpruned grid for atomic number  74.
 Defaulting to unpruned grid for atomic number  74.
 Defaulting to unpruned grid for atomic number  74.
 Defaulting to unpruned grid for atomic number  74.
 Defaulting to unpruned grid for atomic number  74.
 Defaulting to unpruned grid for atomic number  74.
 Defaulting to unpruned grid for atomic number  74.
 Initial guess from the checkpoint file:  "a.chk"
 B after Tr=     0.000574   -0.000078    0.000346
         Rot=    1.000000   -0.000016    0.000007    0.000040 Ang=  -0.01 deg.
 Requested convergence on RMS density matrix=1.00D-08 within  64 cycles.
 Requested convergence on MAX density matrix=1.00D-06.
 Requested convergence on             energy=1.00D-06.
 No special actions if energy rises.
 Defaulting to unpruned grid for atomic number  74.
 Defaulting to unpruned grid for atomic number  74.
 Defaulting to unpruned grid for atomic number  74.
 Defaulting to unpruned grid for atomic number  74.
 Defaulting to unpruned grid for atomic number  74.
 Defaulting to unpruned grid for atomic number  74.
 Defaulting to unpruned grid for atomic number  74.
 Defaulting to unpruned grid for atomic number  74.
 Defaulting to unpruned grid for atomic number  74.
 Defaulting to unpruned grid for atomic number  74.
 Defaulting to unpruned grid for atomic number  74.
 Defaulting to unpruned grid for atomic number  74.
 Defaulting to unpruned grid for atomic number  74.
 Defaulting to unpruned grid for atomic number  74.
 Defaulting to unpruned grid for atomic number  74.
 Defaulting to unpruned grid for atomic number  74.
 Defaulting to unpruned grid for atomic number  74.
 Defaulting to unpruned grid for atomic number  74.
 Defaulting to unpruned grid for atomic number  74.
 Defaulting to unpruned grid for atomic number  74.
 Defaulting to unpruned grid for atomic number  74.
 Defaulting to unpruned grid for atomic number  74.
 Defaulting to unpruned grid for atomic number  74.
 Defaulting to unpruned grid for atomic number  74.
 Defaulting to unpruned grid for atomic number  74.
 Defaulting to unpruned grid for atomic number  74.
 Defaulting to unpruned grid for atomic number  74.
 Defaulting to unpruned grid for atomic number  74.
 Defaulting to unpruned grid for atomic number  74.
 Defaulting to unpruned grid for atomic number  74.
 Defaulting to unpruned grid for atomic number  74.
 Defaulting to unpruned grid for atomic number  74.
 Defaulting to unpruned grid for atomic number  74.
 Defaulting to unpruned grid for atomic number  74.
 Defaulting to unpruned grid for atomic number  74.
 Defaulting to unpruned grid for atomic number  74.
 Defaulting to unpruned grid for atomic number  74.
 Defaulting to unpruned grid for atomic number  74.
 Defaulting to unpruned grid for atomic number  74.
 Defaulting to unpruned grid for atomic number  74.
 Defaulting to unpruned grid for atomic number  74.
 Defaulting to unpruned grid for atomic number  74.
 Defaulting to unpruned grid for atomic number  74.
 Defaulting to unpruned grid for atomic number  74.
 Defaulting to unpruned grid for atomic number  74.
 Defaulting to unpruned grid for atomic number  74.
 Defaulting to unpruned grid for atomic number  74.
 Defaulting to unpruned grid for atomic number  74.
 Defaulting to unpruned grid for atomic number  74.
 Defaulting to unpruned grid for atomic number  74.
 Defaulting to unpruned grid for atomic number  74.
 Defaulting to unpruned grid for atomic number  74.
 Defaulting to unpruned grid for atomic number  74.
 Defaulting to unpruned grid for atomic number  74.
 Defaulting to unpruned grid for atomic number  74.
 Defaulting to unpruned grid for atomic number  74.
 Inv3:  Mode=1 IEnd=    85354668.
 Iteration    1 A*A^-1 deviation from unit magnitude is 3.55D-15 for   3927.
 Iteration    1 A*A^-1 deviation from orthogonality  is 3.15D-15 for    878     26.
 Iteration    1 A^-1*A deviation from unit magnitude is 3.22D-15 for   2348.
 Iteration    1 A^-1*A deviation from orthogonality  is 4.78D-12 for   5262   5183.
 Error on total polarization charges =  0.01617
 SCF Done:  E(RwB97XD) =  -7327.69899952     A.U. after   17 cycles
            NFock= 17  Conv=0.89D-09     -V/T= 2.0831
 SMD-CDS (non-electrostatic) energy       (kcal/mol) =      -3.64
 (included in total energy above)
 QCSCF skips out because SCF is already converged.

 **********************************************************************

            Population analysis using the SCF Density.

 **********************************************************************

 Alpha  occ. eigenvalues -- -197.27887-129.99982-129.99955-129.99862-101.47719
 Alpha  occ. eigenvalues --  -22.61135 -19.32815 -19.32810 -19.32807 -19.32774
 Alpha  occ. eigenvalues --  -19.30614 -19.30612 -19.30610 -19.30599 -19.30571
 Alpha  occ. eigenvalues --  -19.30562 -19.30545 -19.30529 -19.30441 -19.30217
 Alpha  occ. eigenvalues --  -19.30202 -19.29990 -19.29286 -19.29269 -19.29268
 Alpha  occ. eigenvalues --  -19.29258 -19.29249 -19.29243 -19.29225 -19.29199
 Alpha  occ. eigenvalues --  -19.29136 -19.29123 -19.29112 -19.29087 -19.29061
 Alpha  occ. eigenvalues --  -19.29046 -19.29037 -19.29030 -19.29026 -19.29016
 Alpha  occ. eigenvalues --  -19.28992 -19.28990 -19.28961 -19.28893 -19.28872
 Alpha  occ. eigenvalues --  -19.28708 -19.10075 -19.10065 -19.10064 -13.37380
 Alpha  occ. eigenvalues --  -13.37352 -13.37246 -10.70310 -10.70302 -10.70302
 Alpha  occ. eigenvalues --  -10.70283 -10.70275 -10.70274 -10.70179 -10.70170
 Alpha  occ. eigenvalues --  -10.70168 -10.29576 -10.29245 -10.29149 -10.28929
 Alpha  occ. eigenvalues --  -10.28793 -10.28734 -10.27741 -10.26860  -9.38190
 Alpha  occ. eigenvalues --   -7.13016  -7.12970  -7.12962  -3.23226  -3.23214
 Alpha  occ. eigenvalues --   -3.23212  -3.23211  -3.23190  -3.23179  -3.23156
 Alpha  occ. eigenvalues --   -3.23139  -3.23079  -3.22871  -3.22853  -3.22561
 Alpha  occ. eigenvalues --   -2.90706  -1.93185  -1.93157  -1.93136  -1.87621
 Alpha  occ. eigenvalues --   -1.87548  -1.87539  -1.87476  -1.87391  -1.87373
 Alpha  occ. eigenvalues --   -1.87353  -1.87341  -1.87284  -1.87132  -1.87102
 Alpha  occ. eigenvalues --   -1.86911  -1.86561  -1.86443  -1.86433  -1.86417
 Alpha  occ. eigenvalues --   -1.86386  -1.86344  -1.86274  -1.86250  -1.86238
 Alpha  occ. eigenvalues --   -1.86225  -1.86189  -1.86163  -1.86086  -1.86059
 Alpha  occ. eigenvalues --   -1.86053  -1.86027  -1.85982  -1.85929  -1.85916
 Alpha  occ. eigenvalues --   -1.85846  -1.85824  -1.85728  -1.85565  -1.85489
 Alpha  occ. eigenvalues --   -1.51082  -1.51055  -1.50951  -1.12591  -1.10783
 Alpha  occ. eigenvalues --   -1.10688  -1.10676  -1.08709  -1.08472  -1.08446
 Alpha  occ. eigenvalues --   -1.08261  -1.07323  -1.07269  -1.07246  -1.06863
 Alpha  occ. eigenvalues --   -1.06848  -1.06812  -1.06258  -1.06235  -1.05329
 Alpha  occ. eigenvalues --   -1.05314  -1.04931  -1.04925  -1.04891  -1.04189
 Alpha  occ. eigenvalues --   -1.04173  -1.04139  -1.03971  -1.03956  -1.03949
 Alpha  occ. eigenvalues --   -1.03870  -1.03845  -1.03816  -1.03678  -1.03641
 Alpha  occ. eigenvalues --   -1.03543  -1.03501  -1.03154  -1.03144  -1.03112
 Alpha  occ. eigenvalues --   -1.03079  -1.03031  -1.02865  -0.94226  -0.86572
 Alpha  occ. eigenvalues --   -0.86548  -0.86454  -0.86362  -0.86358  -0.86335
 Alpha  occ. eigenvalues --   -0.86330  -0.86304  -0.86235  -0.86221  -0.82642
 Alpha  occ. eigenvalues --   -0.79602  -0.70942  -0.69543  -0.67863  -0.64604
 Alpha  occ. eigenvalues --   -0.63946  -0.63886  -0.63859  -0.62872  -0.62849
 Alpha  occ. eigenvalues --   -0.62809  -0.62797  -0.62359  -0.62341  -0.61562
 Alpha  occ. eigenvalues --   -0.61498  -0.61478  -0.61369  -0.61261  -0.61251
 Alpha  occ. eigenvalues --   -0.61204  -0.60400  -0.59347  -0.59283  -0.59241
 Alpha  occ. eigenvalues --   -0.59182  -0.59169  -0.58517  -0.57986  -0.57956
 Alpha  occ. eigenvalues --   -0.57885  -0.56790  -0.56772  -0.56709  -0.56141
 Alpha  occ. eigenvalues --   -0.56128  -0.55986  -0.55616  -0.54805  -0.54743
 Alpha  occ. eigenvalues --   -0.54724  -0.54396  -0.54198  -0.54084  -0.54038
 Alpha  occ. eigenvalues --   -0.53856  -0.53817  -0.53365  -0.53338  -0.53017
 Alpha  occ. eigenvalues --   -0.52993  -0.52870  -0.52717  -0.52688  -0.52662
 Alpha  occ. eigenvalues --   -0.52644  -0.52511  -0.52467  -0.52300  -0.51390
 Alpha  occ. eigenvalues --   -0.51362  -0.51192  -0.51174  -0.51102  -0.51052
 Alpha  occ. eigenvalues --   -0.51025  -0.50954  -0.50878  -0.50846  -0.50637
 Alpha  occ. eigenvalues --   -0.50620  -0.50578  -0.49905  -0.49884  -0.49205
 Alpha  occ. eigenvalues --   -0.49182  -0.49095  -0.49080  -0.49073  -0.49029
 Alpha  occ. eigenvalues --   -0.48724  -0.47874  -0.47840  -0.47736  -0.47449
 Alpha  occ. eigenvalues --   -0.47275  -0.47219  -0.47154  -0.46930  -0.46837
 Alpha  occ. eigenvalues --   -0.46761  -0.46488  -0.46479  -0.46385  -0.45937
 Alpha  occ. eigenvalues --   -0.45884  -0.45836  -0.45453  -0.45009  -0.44831
 Alpha  occ. eigenvalues --   -0.44788  -0.44057  -0.44005  -0.43886  -0.43334
 Alpha  occ. eigenvalues --   -0.43264  -0.43199  -0.43053  -0.43042  -0.42991
 Alpha  occ. eigenvalues --   -0.42635  -0.42628  -0.42606  -0.42483  -0.42466
 Alpha  occ. eigenvalues --   -0.42416  -0.42400  -0.42361  -0.42257  -0.42239
 Alpha  occ. eigenvalues --   -0.42190  -0.41973  -0.41854  -0.41787  -0.41785
 Alpha  occ. eigenvalues --   -0.41188  -0.41168  -0.41018  -0.40974  -0.40536
 Alpha  occ. eigenvalues --   -0.40502  -0.40475  -0.40167  -0.39373  -0.39362
 Alpha  occ. eigenvalues --   -0.36638  -0.32404  -0.28877  -0.24663  -0.24604
 Alpha  occ. eigenvalues --   -0.22633
 Alpha virt. eigenvalues --   -0.08331  -0.08305  -0.08122  -0.08047  -0.06840
 Alpha virt. eigenvalues --   -0.06819  -0.06736  -0.03664  -0.03583  -0.03528
 Alpha virt. eigenvalues --   -0.03360  -0.03135  -0.03101  -0.02955  -0.02673
 Alpha virt. eigenvalues --   -0.02615  -0.02555  -0.02020  -0.01970  -0.01914
 Alpha virt. eigenvalues --   -0.01293  -0.01247  -0.01205  -0.01094  -0.01031
 Alpha virt. eigenvalues --    0.00089   0.00127   0.00218   0.01553   0.01651
 Alpha virt. eigenvalues --    0.02098   0.02129   0.02192   0.02303   0.02332
 Alpha virt. eigenvalues --    0.02367   0.02385   0.02503   0.02862   0.02962
 Alpha virt. eigenvalues --    0.03082   0.03144   0.03211   0.04614   0.04717
 Alpha virt. eigenvalues --    0.06899   0.07438   0.07551   0.07630   0.07889
 Alpha virt. eigenvalues --    0.08041   0.08571   0.08622   0.08922   0.09156
 Alpha virt. eigenvalues --    0.09333   0.09384   0.09638   0.09893   0.10252
 Alpha virt. eigenvalues --    0.10315   0.10348   0.10410   0.10456   0.10681
 Alpha virt. eigenvalues --    0.10927   0.11092   0.11137   0.11728   0.11752
 Alpha virt. eigenvalues --    0.12421   0.13184   0.13283   0.13424   0.13613
 Alpha virt. eigenvalues --    0.13765   0.14581   0.14632   0.14741   0.15145
 Alpha virt. eigenvalues --    0.15568   0.16243   0.16414   0.16691   0.16748
 Alpha virt. eigenvalues --    0.16807   0.16996   0.17097   0.17262   0.17768
 Alpha virt. eigenvalues --    0.18008   0.18158   0.18214   0.18403   0.18606
 Alpha virt. eigenvalues --    0.18844   0.19015   0.19222   0.19331   0.19505
 Alpha virt. eigenvalues --    0.19559   0.20161   0.20320   0.20409   0.20662
 Alpha virt. eigenvalues --    0.20728   0.20937   0.20964   0.21340   0.21416
 Alpha virt. eigenvalues --    0.21506   0.21638   0.21754   0.21922   0.22323
 Alpha virt. eigenvalues --    0.22648   0.22827   0.23023   0.23315   0.23440
 Alpha virt. eigenvalues --    0.23611   0.23953   0.24109   0.24291   0.24660
 Alpha virt. eigenvalues --    0.24837   0.25245   0.25646   0.25742   0.26021
 Alpha virt. eigenvalues --    0.26187   0.26380   0.26466   0.26573   0.26807
 Alpha virt. eigenvalues --    0.27165   0.27330   0.27539   0.27703   0.27908
 Alpha virt. eigenvalues --    0.28186   0.28363   0.28438   0.28739   0.28779
 Alpha virt. eigenvalues --    0.29452   0.29830   0.30085   0.30303   0.30695
 Alpha virt. eigenvalues --    0.30857   0.31250   0.31354   0.31820   0.31929
 Alpha virt. eigenvalues --    0.32416   0.35140   0.35383   0.35986   0.36564
 Alpha virt. eigenvalues --    0.36755   0.37159   0.37379   0.38196   0.38793
 Alpha virt. eigenvalues --    0.38971   0.39450   0.39687   0.39969   0.40342
 Alpha virt. eigenvalues --    0.40868   0.41068   0.41155   0.41356   0.41909
 Alpha virt. eigenvalues --    0.42269   0.42559   0.42835   0.43358   0.43563
 Alpha virt. eigenvalues --    0.43724   0.44500   0.44720   0.44902   0.45273
 Alpha virt. eigenvalues --    0.45832   0.46350   0.46637   0.46861   0.47203
 Alpha virt. eigenvalues --    0.47386   0.47711   0.47893   0.48037   0.48153
 Alpha virt. eigenvalues --    0.48372   0.48466   0.48657   0.48908   0.48998
 Alpha virt. eigenvalues --    0.49121   0.49244   0.49451   0.49676   0.49901
 Alpha virt. eigenvalues --    0.50146   0.50423   0.50635   0.50862   0.51332
 Alpha virt. eigenvalues --    0.51755   0.51820   0.52027   0.52300   0.52606
 Alpha virt. eigenvalues --    0.52690   0.52963   0.53169   0.53308   0.53473
 Alpha virt. eigenvalues --    0.53747   0.54297   0.54499   0.54521   0.54871
 Alpha virt. eigenvalues --    0.54983   0.55436   0.55799   0.56501   0.56573
 Alpha virt. eigenvalues --    0.56873   0.57404   0.57935   0.58362   0.58575
 Alpha virt. eigenvalues --    0.58831   0.59420   0.59686   0.60623   0.61199
 Alpha virt. eigenvalues --    0.61691   0.62893   0.62940   0.63005   0.63991
 Alpha virt. eigenvalues --    0.64483   0.65767   0.65850   0.65947   0.66128
 Alpha virt. eigenvalues --    0.66605   0.67164   0.67547   0.67623   0.67895
 Alpha virt. eigenvalues --    0.68261   0.68753   0.70437   0.70817   0.71468
 Alpha virt. eigenvalues --    0.71705   0.72251   0.72394   0.72471   0.72586
 Alpha virt. eigenvalues --    0.72753   0.72975   0.73345   0.73717   0.74124
 Alpha virt. eigenvalues --    0.74763   0.75037   0.75854   0.76120   0.76245
 Alpha virt. eigenvalues --    0.76483   0.76876   0.77256   0.77572   0.77817
 Alpha virt. eigenvalues --    0.78054   0.78611   0.79369   0.79669   0.79766
 Alpha virt. eigenvalues --    0.79865   0.80489   0.80847   0.81259   0.81584
 Alpha virt. eigenvalues --    0.81760   0.81885   0.82271   0.82960   0.83325
 Alpha virt. eigenvalues --    0.84407   0.84477   0.85101   0.85536   0.86262
 Alpha virt. eigenvalues --    0.87503   0.87693   0.88228   0.88345   0.89065
 Alpha virt. eigenvalues --    0.89235   0.89346   0.89752   0.89820   0.90680
 Alpha virt. eigenvalues --    0.90988   0.91177   0.91533   0.91828   0.92093
 Alpha virt. eigenvalues --    0.92939   0.93248   0.94111   0.94167   0.94337
 Alpha virt. eigenvalues --    0.94655   0.95118   0.96097   0.96210   0.97186
 Alpha virt. eigenvalues --    0.97298   0.97370   0.97593   0.98022   0.98085
 Alpha virt. eigenvalues --    0.98412   0.98578   0.98755   0.98867   0.99022
 Alpha virt. eigenvalues --    0.99435   1.00027   1.00507   1.00596   1.00746
 Alpha virt. eigenvalues --    1.00965   1.01468   1.01609   1.01847   1.02309
 Alpha virt. eigenvalues --    1.02359   1.02486   1.02627   1.02800   1.02863
 Alpha virt. eigenvalues --    1.03063   1.03799   1.03930   1.04077   1.04144
 Alpha virt. eigenvalues --    1.04415   1.04571   1.04670   1.04765   1.04993
 Alpha virt. eigenvalues --    1.05232   1.05329   1.05462   1.05760   1.05883
 Alpha virt. eigenvalues --    1.06177   1.06512   1.07083   1.07230   1.07546
 Alpha virt. eigenvalues --    1.07763   1.08232   1.08988   1.09408   1.09510
 Alpha virt. eigenvalues --    1.09763   1.09847   1.10084   1.10245   1.10378
 Alpha virt. eigenvalues --    1.10866   1.10935   1.11138   1.11445   1.11643
 Alpha virt. eigenvalues --    1.11663   1.11965   1.12223   1.12843   1.13116
 Alpha virt. eigenvalues --    1.13545   1.13925   1.13958   1.14684   1.15259
 Alpha virt. eigenvalues --    1.15490   1.16122   1.16420   1.16799   1.17202
 Alpha virt. eigenvalues --    1.17641   1.17888   1.18111   1.18771   1.19201
 Alpha virt. eigenvalues --    1.20704   1.20817   1.21187   1.21331   1.21347
 Alpha virt. eigenvalues --    1.21521   1.22014   1.22133   1.22949   1.23891
 Alpha virt. eigenvalues --    1.25093   1.25843   1.26053   1.26700   1.26900
 Alpha virt. eigenvalues --    1.27075   1.28065   1.28440   1.28699   1.28755
 Alpha virt. eigenvalues --    1.28870   1.29069   1.29259   1.29614   1.30141
 Alpha virt. eigenvalues --    1.30313   1.30462   1.30819   1.30975   1.31116
 Alpha virt. eigenvalues --    1.31759   1.32390   1.32515   1.32930   1.33201
 Alpha virt. eigenvalues --    1.33410   1.33744   1.33983   1.34103   1.34229
 Alpha virt. eigenvalues --    1.34446   1.34491   1.34731   1.34987   1.35156
 Alpha virt. eigenvalues --    1.35278   1.35374   1.35535   1.36001   1.36203
 Alpha virt. eigenvalues --    1.36330   1.36489   1.36829   1.37020   1.37252
 Alpha virt. eigenvalues --    1.37511   1.37668   1.37944   1.38274   1.38423
 Alpha virt. eigenvalues --    1.38517   1.38812   1.39014   1.39145   1.39287
 Alpha virt. eigenvalues --    1.39544   1.39838   1.39905   1.40178   1.40529
 Alpha virt. eigenvalues --    1.40670   1.40774   1.40863   1.41033   1.41334
 Alpha virt. eigenvalues --    1.41486   1.41753   1.41988   1.42094   1.42501
 Alpha virt. eigenvalues --    1.42839   1.43322   1.43429   1.43529   1.43645
 Alpha virt. eigenvalues --    1.44211   1.44634   1.44951   1.45843   1.46480
 Alpha virt. eigenvalues --    1.46747   1.47516   1.47553   1.47886   1.48094
 Alpha virt. eigenvalues --    1.48507   1.48992   1.49433   1.49973   1.50443
 Alpha virt. eigenvalues --    1.50805   1.51028   1.51557   1.51920   1.53293
 Alpha virt. eigenvalues --    1.53472   1.55551   1.55774   1.55918   1.56078
 Alpha virt. eigenvalues --    1.56384   1.56674   1.57036   1.57153   1.57442
 Alpha virt. eigenvalues --    1.57671   1.58210   1.58828   1.59590   1.59733
 Alpha virt. eigenvalues --    1.60139   1.60570   1.60850   1.61086   1.61252
 Alpha virt. eigenvalues --    1.61313   1.61691   1.62599   1.62719   1.63008
 Alpha virt. eigenvalues --    1.64462   1.64722   1.65378   1.66151   1.67404
 Alpha virt. eigenvalues --    1.68046   1.68387   1.69629   1.70742   1.71148
 Alpha virt. eigenvalues --    1.71553   1.72008   1.72900   1.74094   1.74696
 Alpha virt. eigenvalues --    1.75437   1.75514   1.75674   1.76262   1.76996
 Alpha virt. eigenvalues --    1.77125   1.77291   1.77825   1.78083   1.78970
 Alpha virt. eigenvalues --    1.79048   1.79601   1.79884   1.80729   1.80828
 Alpha virt. eigenvalues --    1.81757   1.81998   1.82130   1.82707   1.83162
 Alpha virt. eigenvalues --    1.83581   1.83697   1.84441   1.84613   1.84838
 Alpha virt. eigenvalues --    1.85482   1.85636   1.86050   1.86518   1.86774
 Alpha virt. eigenvalues --    1.86960   1.87597   1.87906   1.88545   1.88798
 Alpha virt. eigenvalues --    1.89399   1.89969   1.90401   1.90579   1.90795
 Alpha virt. eigenvalues --    1.91024   1.91348   1.91782   1.92384   1.93930
 Alpha virt. eigenvalues --    1.94822   1.95071   1.95267   1.95759   1.96287
 Alpha virt. eigenvalues --    1.98899   1.99219   1.99319   1.99356   2.05506
 Alpha virt. eigenvalues --    2.06958   2.08252   2.08560   2.08765   2.09123
 Alpha virt. eigenvalues --    2.09395   2.09634   2.09673   2.10351   2.10990
 Alpha virt. eigenvalues --    2.11460   2.11944   2.12833   2.14876   2.15287
 Alpha virt. eigenvalues --    2.15817   2.17117   2.17512   2.17837   2.18240
 Alpha virt. eigenvalues --    2.20564   2.21368   2.21646   2.21797   2.21829
 Alpha virt. eigenvalues --    2.22486   2.22656   2.24195   2.25217   2.25904
 Alpha virt. eigenvalues --    2.26352   2.26536   2.27156   2.28309   2.28726
 Alpha virt. eigenvalues --    2.29472   2.29774   2.30168   2.34948   2.35127
 Alpha virt. eigenvalues --    2.36921   2.39373   2.41319   2.41621   2.44160
 Alpha virt. eigenvalues --    2.44269   2.51493   2.52263   2.58076   2.64949
 Alpha virt. eigenvalues --    2.65016   2.65190   2.66127   2.66335   2.66622
 Alpha virt. eigenvalues --    2.66893   2.66918   2.66970   2.67076   2.67118
 Alpha virt. eigenvalues --    2.67210   2.67315   2.67396   2.67423   2.67694
 Alpha virt. eigenvalues --    2.67766   2.67988   2.68022   2.68129   2.68424
 Alpha virt. eigenvalues --    2.68966   2.69172   2.69221   2.69429   2.69867
 Alpha virt. eigenvalues --    2.70248   2.70297   2.70459   2.70610   2.70776
 Alpha virt. eigenvalues --    2.70805   2.71423   2.71470   2.71603   2.71670
 Alpha virt. eigenvalues --    2.71712   2.72006   2.72564   2.72735   2.72909
 Alpha virt. eigenvalues --    2.72947   2.73080   2.73149   2.73291   2.73319
 Alpha virt. eigenvalues --    2.73582   2.73705   2.73805   2.73850   2.73880
 Alpha virt. eigenvalues --    2.74124   2.74237   2.74401   2.74564   2.74702
 Alpha virt. eigenvalues --    2.74815   2.74999   2.75367   2.75854   2.76005
 Alpha virt. eigenvalues --    2.76158   2.76339   2.76407   2.76676   2.76807
 Alpha virt. eigenvalues --    2.76993   2.77183   2.77217   2.78258   2.78408
 Alpha virt. eigenvalues --    2.78658   2.78820   2.79899   2.80028   2.80198
 Alpha virt. eigenvalues --    2.81160   2.81927   2.81941   2.82314   2.82374
 Alpha virt. eigenvalues --    2.82676   2.83063   2.83467   2.83533   2.83969
 Alpha virt. eigenvalues --    2.84075   2.84127   2.84298   2.84564   2.85465
 Alpha virt. eigenvalues --    2.86072   2.86330   2.86513   2.86680   2.86852
 Alpha virt. eigenvalues --    2.86963   2.87105   2.87338   2.87762   2.88609
 Alpha virt. eigenvalues --    2.88952   2.89333   2.89879   2.89920   2.90053
 Alpha virt. eigenvalues --    2.90248   2.90320   2.90406   2.90488   2.90605
 Alpha virt. eigenvalues --    2.90726   2.91856   2.92036   2.92142   2.92290
 Alpha virt. eigenvalues --    2.92703   2.92758   2.93038   2.93251   2.93344
 Alpha virt. eigenvalues --    2.93742   2.93872   2.94177   2.94237   2.94340
 Alpha virt. eigenvalues --    2.94456   2.94859   2.95206   2.95411   2.95977
 Alpha virt. eigenvalues --    2.96113   2.96341   2.96761   2.96912   2.97047
 Alpha virt. eigenvalues --    2.97297   2.97338   2.97526   2.97618   2.97912
 Alpha virt. eigenvalues --    2.98042   2.98176   2.98343   2.98697   2.99376
 Alpha virt. eigenvalues --    2.99657   2.99790   2.99939   3.00093   3.00413
 Alpha virt. eigenvalues --    3.00726   3.00847   3.01652   3.02261   3.03104
 Alpha virt. eigenvalues --    3.03887   3.04586   3.04640   3.04802   3.05272
 Alpha virt. eigenvalues --    3.06794   3.06935   3.07510   3.11388   3.12091
 Alpha virt. eigenvalues --    3.12231   3.12414   3.12969   3.13159   3.14275
 Alpha virt. eigenvalues --    3.14454   3.14524   3.17260   3.20584   3.21659
 Alpha virt. eigenvalues --    3.21805   3.24168   3.33096   3.40195   3.40856
 Alpha virt. eigenvalues --    3.41746   3.41931   3.44189   3.44292   3.45102
 Alpha virt. eigenvalues --    3.45490   3.45602   3.46632   3.46772   3.47228
 Alpha virt. eigenvalues --    3.49651   3.50858   3.51221   3.51827   3.53106
 Alpha virt. eigenvalues --    3.53206   3.53846   3.54229   3.54365   3.54470
 Alpha virt. eigenvalues --    3.54585   3.54864   3.55122   3.56043   3.57078
 Alpha virt. eigenvalues --    3.57409   3.58014   3.58869   3.59166   3.59988
 Alpha virt. eigenvalues --    3.60045   3.60699   3.61230   3.61595   3.62237
 Alpha virt. eigenvalues --    3.70503   3.75179  68.64637  68.65637  68.66952
 Alpha virt. eigenvalues --   68.69439  68.72940  68.73891  68.81620  68.82694
 Alpha virt. eigenvalues --   68.83219  68.86125  68.87216  68.88544 576.23063
 Alpha virt. eigenvalues --  576.24040 576.25330 576.27760 576.31280 576.32216
 Alpha virt. eigenvalues --  576.39799 576.40851 576.41360 576.44164 576.45234
 Alpha virt. eigenvalues --  576.46551
          Condensed to atoms (all electrons):
 Mulliken charges:
               1
     1  Cl  -0.912118
     2  C   -0.086757
     3  C    0.042067
     4  C   -0.080756
     5  C   -0.033318
     6  C   -0.034009
     7  C   -0.050155
     8  H    0.025093
     9  H    0.026693
    10  H    0.039124
    11  H    0.036130
    12  H    0.038045
    13  C   -0.079228
    14  C    0.039164
    15  H    0.010364
    16  H    0.030150
    17  H    0.032264
    18  O   -0.661722
    19  O   -0.659828
    20  O   -0.653859
    21  O   -0.661672
    22  W    1.736461
    23  W    1.676203
    24  W    1.687326
    25  W    1.697155
    26  W    1.672920
    27  W    1.725888
    28  W    1.617922
    29  W    1.682954
    30  O   -0.324200
    31  O   -0.369910
    32  O   -0.369262
    33  O   -0.367664
    34  O   -0.662339
    35  O   -0.669469
    36  O   -0.660466
    37  O   -0.662643
    38  O   -0.368883
    39  O   -0.369683
    40  O   -0.289345
    41  O   -0.368429
    42  O   -0.668974
    43  O   -0.661720
    44  O   -0.658241
    45  O   -0.664061
    46  O   -0.369338
    47  O   -0.323824
    48  O   -0.357126
    49  O   -0.368160
    50  W    1.669841
    51  W    1.673548
    52  W    1.670184
    53  W    1.680452
    54  O   -0.722278
    55  O   -0.705248
    56  O   -0.723800
    57  O   -0.719872
    58  O   -0.702717
    59  O   -0.724734
    60  O   -0.723209
    61  O   -0.720499
    62  O   -0.722196
    63  O   -0.706520
    64  O   -0.721519
    65  O   -0.725306
    66  O   -0.798932
    67  O   -0.797801
    68  O   -0.796027
    69  O   -0.809702
    70  K    0.859799
    71  K    0.859154
    72  K    0.854639
    73  V    1.203979
 Sum of Mulliken charges =  -1.00000
 Mulliken charges with hydrogens summed into heavy atoms:
               1
     1  Cl  -0.912118
     2  C   -0.061664
     3  C    0.042067
     4  C   -0.054064
     5  C    0.005806
     6  C    0.002121
     7  C   -0.012110
    13  C   -0.068864
    14  C    0.101578
    18  O   -0.661722
    19  O   -0.659828
    20  O   -0.653859
    21  O   -0.661672
    22  W    1.736461
    23  W    1.676203
    24  W    1.687326
    25  W    1.697155
    26  W    1.672920
    27  W    1.725888
    28  W    1.617922
    29  W    1.682954
    30  O   -0.324200
    31  O   -0.369910
    32  O   -0.369262
    33  O   -0.367664
    34  O   -0.662339
    35  O   -0.669469
    36  O   -0.660466
    37  O   -0.662643
    38  O   -0.368883
    39  O   -0.369683
    40  O   -0.289345
    41  O   -0.368429
    42  O   -0.668974
    43  O   -0.661720
    44  O   -0.658241
    45  O   -0.664061
    46  O   -0.369338
    47  O   -0.323824
    48  O   -0.357126
    49  O   -0.368160
    50  W    1.669841
    51  W    1.673548
    52  W    1.670184
    53  W    1.680452
    54  O   -0.722278
    55  O   -0.705248
    56  O   -0.723800
    57  O   -0.719872
    58  O   -0.702717
    59  O   -0.724734
    60  O   -0.723209
    61  O   -0.720499
    62  O   -0.722196
    63  O   -0.706520
    64  O   -0.721519
    65  O   -0.725306
    66  O   -0.798932
    67  O   -0.797801
    68  O   -0.796027
    69  O   -0.809702
    70  K    0.859799
    71  K    0.859154
    72  K    0.854639
    73  V    1.203979
 Electronic spatial extent (au):  <R**2>=         316850.7704
 Charge=             -1.0000 electrons
 Dipole moment (field-independent basis, Debye):
    X=             51.4657    Y=            -48.7620    Z=            -38.6088  Tot=             80.7285
 Quadrupole moment (field-independent basis, Debye-Ang):
   XX=          -1068.9891   YY=           -850.4533   ZZ=           -914.3672
   XY=            434.0273   XZ=            461.0118   YZ=           -450.7537
 Traceless Quadrupole moment (field-independent basis, Debye-Ang):
   XX=           -124.3859   YY=             94.1499   ZZ=             30.2360
   XY=            434.0273   XZ=            461.0118   YZ=           -450.7537
 Octapole moment (field-independent basis, Debye-Ang**2):
  XXX=          13651.1528  YYY=           -644.1739  ZZZ=         -19170.3441  XYY=           5758.1068
  XXY=          -3512.4653  XXZ=          -9568.3639  XZZ=           7374.3052  YZZ=          -3866.8651
  YYZ=          -8592.4418  XYZ=           4556.1682
 Hexadecapole moment (field-independent basis, Debye-Ang**3):
 XXXX=        -161921.3497 YYYY=         -48365.3979 ZZZZ=        -347082.7708 XXXY=          35886.2960
 XXXZ=         124984.4782 YYYX=          16936.2231 YYYZ=          -8113.9678 ZZZX=         128207.4217
 ZZZY=         -32035.2658 XXYY=         -52925.6860 XXZZ=        -109489.5883 YYZZ=         -94529.4554
 XXYZ=         -40391.6705 YYXZ=          57868.4989 ZZXY=          47461.9660
 N-N= 2.105578929980D+04 E-N=-5.919780686893D+04  KE= 6.765475065411D+03
   1 Symmetry operations used in ECPInt.
 ECPInt:  NShTT=  127765 NPrTT=  468030 LenC2=   96904 LenP2D=  221932.
 LDataN:  DoStor=T MaxTD1= 9 Len=  602
 D1PCM: PCM CHGder 1st derivatives, ID1Alg=3 FixD1E=F DoIter=F DoCFld=F I1PDM=0.
 Calling FoFJK, ICntrl=      2127 FMM=T ISym2X=0 I1Cent= 0 IOpClX= 0 NMat=1 NMatS=1 NMatT=0.
 Defaulting to unpruned grid for atomic number  74.
 Defaulting to unpruned grid for atomic number  74.
 Defaulting to unpruned grid for atomic number  74.
 Defaulting to unpruned grid for atomic number  74.
 Defaulting to unpruned grid for atomic number  74.
 Defaulting to unpruned grid for atomic number  74.
 Defaulting to unpruned grid for atomic number  74.
 Defaulting to unpruned grid for atomic number  74.
 Defaulting to unpruned grid for atomic number  74.
 Defaulting to unpruned grid for atomic number  74.
 Defaulting to unpruned grid for atomic number  74.
 Defaulting to unpruned grid for atomic number  74.
 Defaulting to unpruned grid for atomic number  74.
 Defaulting to unpruned grid for atomic number  74.
 Defaulting to unpruned grid for atomic number  74.
 Defaulting to unpruned grid for atomic number  74.
 Defaulting to unpruned grid for atomic number  74.
 Defaulting to unpruned grid for atomic number  74.
 Defaulting to unpruned grid for atomic number  74.
 Defaulting to unpruned grid for atomic number  74.
 Defaulting to unpruned grid for atomic number  74.
 Defaulting to unpruned grid for atomic number  74.
 Defaulting to unpruned grid for atomic number  74.
 Defaulting to unpruned grid for atomic number  74.
 Defaulting to unpruned grid for atomic number  74.
 Defaulting to unpruned grid for atomic number  74.
 Defaulting to unpruned grid for atomic number  74.
 Defaulting to unpruned grid for atomic number  74.
 Defaulting to unpruned grid for atomic number  74.
 Defaulting to unpruned grid for atomic number  74.
 Defaulting to unpruned grid for atomic number  74.
 Defaulting to unpruned grid for atomic number  74.
 Defaulting to unpruned grid for atomic number  74.
 Defaulting to unpruned grid for atomic number  74.
 Defaulting to unpruned grid for atomic number  74.
 Defaulting to unpruned grid for atomic number  74.
 Defaulting to unpruned grid for atomic number  74.
 Defaulting to unpruned grid for atomic number  74.
 Defaulting to unpruned grid for atomic number  74.
 Defaulting to unpruned grid for atomic number  74.
 Defaulting to unpruned grid for atomic number  74.
 Defaulting to unpruned grid for atomic number  74.
 Defaulting to unpruned grid for atomic number  74.
 Defaulting to unpruned grid for atomic number  74.
 Defaulting to unpruned grid for atomic number  74.
 Defaulting to unpruned grid for atomic number  74.
 Defaulting to unpruned grid for atomic number  74.
 Defaulting to unpruned grid for atomic number  74.
 Defaulting to unpruned grid for atomic number  74.
 Defaulting to unpruned grid for atomic number  74.
 Defaulting to unpruned grid for atomic number  74.
 Defaulting to unpruned grid for atomic number  74.
 Defaulting to unpruned grid for atomic number  74.
 Defaulting to unpruned grid for atomic number  74.
 Defaulting to unpruned grid for atomic number  74.
 Defaulting to unpruned grid for atomic number  74.
 -------------------------------------------------------------------
 Center     Atomic                   Forces (Hartrees/Bohr)
 Number     Number              X              Y              Z
 -------------------------------------------------------------------
      1       17          -0.004475024    0.010867287    0.003119175
      2        6          -0.000326758   -0.001536109   -0.000171242
      3        6          -0.000582175   -0.001288730    0.001163416
      4        6           0.001528550   -0.000054048    0.000752537
      5        6          -0.000478482   -0.000507694   -0.000363178
      6        6           0.000500131    0.000503783    0.001429015
      7        6          -0.000826680   -0.000679198   -0.001028990
      8        1           0.000373928    0.000114509   -0.000159821
      9        1          -0.000695110   -0.000881361   -0.000345936
     10        1          -0.000723275   -0.000177651    0.000680551
     11        1           0.000102941    0.000250562   -0.000263227
     12        1           0.000080961    0.000562244    0.000793385
     13        6           0.003950978    0.005677547   -0.003961266
     14        6          -0.004456482   -0.005762142    0.001248351
     15        1           0.001465668   -0.001744123    0.000124633
     16        1          -0.000128884   -0.000495749   -0.000685395
     17        1           0.000102571   -0.001011258   -0.000508189
     18        8          -0.000130278   -0.000366817    0.000441470
     19        8           0.000006943    0.000119498    0.000730551
     20        8          -0.000015851   -0.000435567   -0.000477451
     21        8           0.000268538    0.000066791   -0.000649430
     22       74           0.002221615    0.007242729   -0.007482884
     23       74          -0.002045151   -0.005778466   -0.005857871
     24       74           0.002937256    0.005078648    0.005833695
     25       74          -0.003193635   -0.004602247    0.005617015
     26       74           0.004888365   -0.003769516   -0.006040970
     27       74          -0.006223615    0.005194276   -0.007910507
     28       74          -0.005489670    0.002601067    0.005402617
     29       74           0.005287004   -0.001672310    0.005891617
     30        8          -0.000550259   -0.004491850    0.003427807
     31        8           0.000117140    0.003240222    0.002198055
     32        8          -0.002246469   -0.001781647   -0.001997344
     33        8           0.002088655    0.001470124   -0.001982506
     34        8          -0.000574506   -0.000676123   -0.000676923
     35        8           0.000634835   -0.000234682   -0.000802354
     36        8           0.000090098   -0.000778934    0.000601417
     37        8           0.000012309    0.000672912    0.000523778
     38        8          -0.003898554   -0.001119364   -0.001522407
     39        8           0.004112338    0.001241018   -0.001814893
     40        8           0.003609018   -0.005718446    0.000445203
     41        8          -0.001153300    0.003459671    0.001326408
     42        8           0.000037995    0.000594566    0.000302929
     43        8           0.000540575   -0.000846748   -0.000028448
     44        8           0.001640156   -0.000367947    0.000303914
     45        8          -0.000709355   -0.000543120   -0.000229732
     46        8          -0.001630378    0.002694137    0.003025646
     47        8           0.003036799   -0.003241764    0.004997661
     48        8           0.002716472    0.000167520   -0.002951482
     49        8          -0.002603907   -0.000303023   -0.002665874
     50       74           0.007730126    0.002709047    0.001217246
     51       74          -0.008050786   -0.002120583    0.001463828
     52       74          -0.003196356    0.010172361   -0.001697739
     53       74           0.002561999   -0.007671041   -0.000762214
     54        8           0.000001613    0.000097807    0.000288622
     55        8          -0.000039347   -0.000054060    0.000082116
     56        8           0.000123076   -0.000391249   -0.000092468
     57        8           0.000286618   -0.000145568   -0.000154547
     58        8           0.000845032   -0.001148151   -0.000429154
     59        8           0.000113871   -0.000009986   -0.000133691
     60        8           0.000110808   -0.000166192   -0.000086900
     61        8           0.000137725    0.000043812    0.000078801
     62        8          -0.000916656    0.000504527   -0.000027484
     63        8           0.000989431   -0.001132550   -0.000142970
     64        8           0.000890618   -0.000701387   -0.000350842
     65        8          -0.000856358    0.000424344   -0.000149452
     66        8          -0.015362023   -0.004282921    0.011003932
     67        8           0.015584577    0.004783267    0.010880334
     68        8           0.005418161   -0.016259795   -0.011407848
     69        8          -0.005593988    0.015415392   -0.011605201
     70       19           0.000405398   -0.001627972   -0.001197681
     71       19           0.001487662    0.000671799    0.001152187
     72       19          -0.001635360   -0.000358685    0.001325451
     73       23          -0.000229889    0.000295309    0.000943149
 -------------------------------------------------------------------
 Cartesian Forces:  Max     0.016259795 RMS     0.003793020

 GradGradGradGradGradGradGradGradGradGradGradGradGradGradGradGradGradGrad
 Berny optimization.
 Search for a local minimum.
 Step number   1 out of a maximum of    2
 All quantities printed in internal units (Hartrees-Bohrs-Radians)
 Second derivative matrix not updated -- first step.
 ITU=  0
     Eigenvalues ---    0.00000   0.00000   0.00000   0.00010   0.00091
     Eigenvalues ---    0.00093   0.00259   0.00573   0.00618   0.01646
     Eigenvalues ---    0.02007   0.02896   0.02967   0.03218   0.03425
     Eigenvalues ---    0.03467   0.03715   0.03732   0.04150   0.04530
     Eigenvalues ---    0.04614   0.04620   0.04640   0.04862   0.04869
     Eigenvalues ---    0.05019   0.05367   0.05571   0.05618   0.06398
     Eigenvalues ---    0.06445   0.06580   0.06791   0.06865   0.07057
     Eigenvalues ---    0.07324   0.07412   0.07627   0.08431   0.08454
     Eigenvalues ---    0.08779   0.08840   0.08958   0.08993   0.09755
     Eigenvalues ---    0.09990   0.10200   0.10420   0.10494   0.10599
     Eigenvalues ---    0.10944   0.10967   0.11580   0.11727   0.12045
     Eigenvalues ---    0.12105   0.12138   0.12567   0.12572   0.12774
     Eigenvalues ---    0.12887   0.12889   0.12953   0.13199   0.13231
     Eigenvalues ---    0.13938   0.13978   0.14453   0.14782   0.14804
     Eigenvalues ---    0.16803   0.16875   0.17053   0.17168   0.17613
     Eigenvalues ---    0.17688   0.18683   0.19848   0.19994   0.20324
     Eigenvalues ---    0.20940   0.20998   0.21982   0.22101   0.22238
     Eigenvalues ---    0.22775   0.23309   0.23452   0.23920   0.24047
     Eigenvalues ---    0.24684   0.24896   0.25107   0.26008   0.26214
     Eigenvalues ---    0.26378   0.26842   0.27653   0.27853   0.28050
     Eigenvalues ---    0.28542   0.28635   0.29175   0.29888   0.30004
     Eigenvalues ---    0.30783   0.30892   0.30990   0.31105   0.31261
     Eigenvalues ---    0.31288   0.31356   0.31636   0.31851   0.32823
     Eigenvalues ---    0.32940   0.33018   0.33149   0.33277   0.33757
     Eigenvalues ---    0.33944   0.35565   0.35801   0.36182   0.37083
     Eigenvalues ---    0.37611   0.37750   0.37803   0.38602   0.38876
     Eigenvalues ---    0.39273   0.39596   0.40575   0.40867   0.42150
     Eigenvalues ---    0.42719   0.43013   0.43684   0.44645   0.45084
     Eigenvalues ---    0.45776   0.45953   0.46390   0.48492   0.48778
     Eigenvalues ---    0.48968   0.49605   0.49855   0.50197   0.50355
     Eigenvalues ---    0.50521   0.50958   0.51450   0.52519   0.53137
     Eigenvalues ---    0.54093   0.54499   0.57498   0.59823   0.64451
     Eigenvalues ---    0.67652   0.77110   0.82247   0.83280   0.96916
     Eigenvalues ---    0.97284   0.99418   1.00139   1.02570   1.04520
     Eigenvalues ---    1.08207   1.12372   1.12837   1.13582   1.18140
     Eigenvalues ---    1.20759   1.20875   1.21236   1.22627   1.23527
     Eigenvalues ---    1.23806   1.27010   1.27374   1.27571   1.28353
     Eigenvalues ---    1.28553   1.30645   1.31571   1.44445   1.45372
     Eigenvalues ---    1.46307   1.48389   1.51928   1.52147   1.52681
     Eigenvalues ---    1.52739   1.55464   1.55594   1.56901   1.58457
     Eigenvalues ---    1.58656   1.59880   1.61511   1.66457   1.82651
     Eigenvalues ---    1.92494   1.96804   2.00781   2.03439   2.09164
     Eigenvalues ---    2.11314   2.14655   3.93506
 Eigenvalue     1 is   2.22D-16 Eigenvector:
                          Y11       Y12       Y6        Y7        Y10
   1                    0.17528   0.17528   0.17528   0.17528   0.17528
                          Y5        Y2        Y8        Y4        Y3
   1                    0.17528   0.17528   0.17528   0.17528   0.17528
 Eigenvalue     2 is   3.85D-07 Eigenvector:
                          Y16       X16       X11       Y11       Y14
   1                    0.33765  -0.26184   0.26161  -0.25275   0.24942
                          Y15       Y17       Y13       X14       X6
   1                    0.23791   0.20799   0.19423  -0.18384   0.18210
 Eigenvalue     3 is   2.74D-06 Eigenvector:
                          X9        X10       Y12       Y9        X12
   1                    0.32629   0.29657   0.27613  -0.26031  -0.24880
                          Y8        Y10       X8        Y17       X15
   1                    0.24855  -0.23367  -0.22012   0.21365   0.20574
 Quadratic step=2.293D+01 exceeds max=3.000D-01 adjusted using Lamda=-9.411D-03.
 Angle between NR and scaled steps=  34.02 degrees.
 Angle between quadratic step and forces=  73.34 degrees.
 Linear search not attempted -- first point.
 B after Tr=     0.002624    0.004545    0.001672
         Rot=    1.000000   -0.000142    0.000059    0.000214 Ang=  -0.03 deg.
 Variable       Old X    -DE/DX   Delta X   Delta X   Delta X     New X
                                 (Linear)    (Quad)   (Total)
    X1      -18.76339  -0.00448   0.00000  -0.00446   0.00209 -18.76130
    Y1       14.58480   0.01087   0.00000   0.01094   0.01793  14.60273
    Z1       19.68752   0.00312   0.00000   0.00332   0.00693  19.69445
    X2      -15.70964  -0.00033   0.00000   0.00113   0.00446 -15.70518
    Y2        8.03098  -0.00154   0.00000  -0.03333  -0.02863   8.00235
    Z2       23.12792  -0.00017   0.00000  -0.01055  -0.00846  23.11946
    X3      -17.12758  -0.00058   0.00000   0.00805   0.01136 -17.11622
    Y3        7.41608  -0.00129   0.00000  -0.05564  -0.04972   7.36636
    Z3       20.96551   0.00116   0.00000  -0.00858  -0.00683  20.95868
    X4      -18.91146   0.00153   0.00000   0.00350   0.00595 -18.90551
    Y4        5.46007  -0.00005   0.00000  -0.04883  -0.04220   5.41787
    Z4       21.16489   0.00075   0.00000   0.01337   0.01436  21.17924
    X5      -19.25004  -0.00048   0.00000  -0.01224  -0.01061 -19.26064
    Y5        4.14540  -0.00051   0.00000  -0.01648  -0.01035   4.13505
    Z5       23.41649  -0.00036   0.00000   0.03080   0.03137  23.44787
    X6      -17.81728   0.00050   0.00000  -0.01348  -0.01182 -17.82910
    Y6        4.76234   0.00050   0.00000   0.00488   0.00980   4.77214
    Z6       25.53958   0.00143   0.00000   0.02713   0.02805  25.56763
    X7      -16.04371  -0.00083   0.00000  -0.01046  -0.00795 -16.05166
    Y7        6.71119  -0.00068   0.00000  -0.00159   0.00263   6.71381
    Z7       25.38156  -0.00103   0.00000   0.00587   0.00756  25.38912
    X8      -14.31970   0.00037   0.00000   0.00379   0.00778 -14.31192
    Y8        9.55390   0.00011   0.00000  -0.03414  -0.03000   9.52390
    Z8       23.05325  -0.00016   0.00000  -0.02257  -0.01988  23.03337
    X9      -20.02581  -0.00070   0.00000  -0.00066   0.00177 -20.02404
    Y9        4.96428  -0.00088   0.00000  -0.06558  -0.05800   4.90627
    Z9       19.49858  -0.00035   0.00000   0.01820   0.01891  19.51749
   X10      -20.62315  -0.00072   0.00000  -0.02613  -0.02516 -20.64832
   Y10        2.60663  -0.00018   0.00000  -0.00458   0.00212   2.60875
   Z10       23.49913   0.00068   0.00000   0.05104   0.05102  23.55015
   X11      -18.06243   0.00010   0.00000  -0.01723  -0.01622 -18.07865
   Y11        3.71742   0.00025   0.00000   0.02546   0.02999   3.74740
   Z11       27.30363  -0.00026   0.00000   0.03696   0.03756  27.34119
   X12      -14.89999   0.00008   0.00000  -0.01836  -0.01583 -14.91582
   Y12        7.19930   0.00056   0.00000   0.02314   0.02640   7.22570
   Z12       27.02884   0.00079   0.00000   0.00706   0.00903  27.03787
   X13      -16.83748   0.00395   0.00000   0.01880   0.02294 -16.81454
   Y13        8.72172   0.00568   0.00000  -0.08094  -0.07445   8.64727
   Z13       18.54493  -0.00396   0.00000  -0.02771  -0.02556  18.51936
   X14      -15.26838  -0.00446   0.00000  -0.00676  -0.00173 -15.27011
   Y14       10.65272  -0.00576   0.00000  -0.07674  -0.07078  10.58194
   Z14       18.07699   0.00125   0.00000  -0.03313  -0.03026  18.04673
   X15      -18.15439   0.00147   0.00000   0.04807   0.05212 -18.10227
   Y15        8.14116  -0.00174   0.00000  -0.12407  -0.11660   8.02456
   Z15       17.05444   0.00012   0.00000  -0.03337  -0.03156  17.02288
   X16      -15.23063  -0.00013   0.00000  -0.00490   0.00073 -15.22989
   Y16       11.57405  -0.00050   0.00000  -0.08955  -0.08308  11.49097
   Z16       16.23475  -0.00069   0.00000  -0.04079  -0.03766  16.19709
   X17      -13.95934   0.00010   0.00000  -0.01893  -0.01374 -13.97309
   Y17       11.40228  -0.00101   0.00000  -0.05695  -0.05195  11.35033
   Z17       19.48694  -0.00051   0.00000  -0.03274  -0.02949  19.45745
   X18       -1.92297  -0.00013   0.00000  -0.00514  -0.00560  -1.92856
   Y18       -3.32887  -0.00037   0.00000  -0.00020   0.00117  -3.32770
   Z18       14.09844   0.00044   0.00000   0.00545   0.00595  14.10439
   X19      -15.87838   0.00001   0.00000   0.00150   0.00139 -15.87699
   Y19       -2.50698   0.00012   0.00000   0.01442   0.02176  -2.48522
   Z19       14.10624   0.00073   0.00000   0.00815   0.00725  14.11349
   X20      -13.33709  -0.00002   0.00000   0.01124   0.01262 -13.32447
   Y20        2.52120  -0.00044   0.00000   0.01059   0.01521   2.53641
   Z20       19.82816  -0.00048   0.00000  -0.00933  -0.00851  19.81965
   X21       -4.42293   0.00027   0.00000  -0.00619  -0.00942  -4.43235
   Y21       -8.20696   0.00007   0.00000   0.00481   0.00559  -8.20137
   Z21       19.96032  -0.00065   0.00000  -0.00674  -0.00792  19.95240
   X22       -6.49016   0.00222   0.00000   0.00541   0.00720  -6.48295
   Y22        1.41642   0.00724   0.00000   0.00919   0.01303   1.42945
   Z22       12.29783  -0.00748   0.00000  -0.01525  -0.01394  12.28389
   X23      -11.35721  -0.00205   0.00000  -0.00345  -0.00538 -11.36259
   Y23       -7.23017  -0.00578   0.00000   0.00160   0.00748  -7.22269
   Z23       12.45225  -0.00586   0.00000  -0.01091  -0.01263  12.43962
   X24       -6.86927   0.00294   0.00000   0.01328   0.01411  -6.85516
   Y24        1.73520   0.00508   0.00000   0.00562   0.00698   1.74218
   Z24       21.54245   0.00583   0.00000   0.01400   0.01536  21.55781
   X25      -10.91919  -0.00319   0.00000  -0.01295  -0.01600 -10.93519
   Y25       -7.30526  -0.00460   0.00000   0.00517   0.00824  -7.29701
   Z25       21.67082   0.00562   0.00000   0.01062   0.00893  21.67975
   X26       -4.66697   0.00489   0.00000  -0.00144  -0.00230  -4.66926
   Y26       -4.81388  -0.00377   0.00000  -0.00436  -0.00123  -4.81511
   Z26       12.05170  -0.00604   0.00000  -0.00660  -0.00685  12.04485
   X27      -13.13534  -0.00622   0.00000  -0.00345  -0.00265 -13.13800
   Y27       -0.99848   0.00519   0.00000   0.01787   0.02463  -0.97385
   Z27       11.99999  -0.00791   0.00000  -0.00551  -0.00566  11.99432
   X28      -12.91402  -0.00549   0.00000  -0.00522  -0.00537 -12.91940
   Y28       -0.48079   0.00260   0.00000   0.01017   0.01402  -0.46677
   Z28       21.91890   0.00540   0.00000   0.00465   0.00466  21.92357
   X29       -4.85518   0.00529   0.00000   0.00492   0.00279  -4.85239
   Y29       -5.08410  -0.00167   0.00000   0.00439   0.00477  -5.07933
   Z29       21.97644   0.00589   0.00000   0.00668   0.00634  21.98278
   X30       -6.06156  -0.00055   0.00000   0.01822   0.02123  -6.04032
   Y30        3.69718  -0.00449   0.00000  -0.00796  -0.00369   3.69350
   Z30       10.10386   0.00343   0.00000  -0.01536  -0.01336  10.09050
   X31      -11.59619   0.00012   0.00000  -0.01418  -0.01688 -11.61307
   Y31       -9.62000   0.00324   0.00000   0.01099   0.01758  -9.60241
   Z31       10.31900   0.00220   0.00000  -0.01012  -0.01255  10.30645
   X32       -5.10576  -0.00225   0.00000   0.00165   0.00292  -5.10284
   Y32        3.34426  -0.00178   0.00000   0.00578   0.00578   3.35004
   Z32       23.69196  -0.00200   0.00000   0.01423   0.01625  23.70821
   X33      -12.66715   0.00209   0.00000  -0.00294  -0.00691 -12.67405
   Y33       -8.84232   0.00147   0.00000   0.00399   0.00718  -8.83514
   Z33       23.88357  -0.00198   0.00000   0.00971   0.00738  23.89095
   X34       -5.09656  -0.00057   0.00000  -0.00450  -0.00383  -5.10038
   Y34       -1.63334  -0.00068   0.00000  -0.00363   0.00010  -1.63324
   Z34       10.59083  -0.00068   0.00000  -0.00793  -0.00732  10.58351
   X35      -12.69362   0.00063   0.00000   0.00159   0.00113 -12.69249
   Y35       -4.28682  -0.00023   0.00000   0.01296   0.01992  -4.26690
   Z35       10.66817  -0.00080   0.00000  -0.00599  -0.00702  10.66114
   X36      -10.05927   0.00009   0.00000   0.00363   0.00397 -10.05530
   Y36        1.07021  -0.00078   0.00000   0.00077   0.00299   1.07320
   Z36       23.34718   0.00060   0.00000   0.00632   0.00711  23.35429
   X37       -7.68869   0.00001   0.00000  -0.00396  -0.00693  -7.69562
   Y37       -6.63370   0.00067   0.00000   0.01053   0.01172  -6.62198
   Z37       23.43225   0.00052   0.00000   0.00504   0.00392  23.43618
   X38        0.56727  -0.00390   0.00000   0.00266   0.00322   0.57049
   Y38       -0.01221  -0.00112   0.00000   0.00372   0.00304  -0.00917
   Z38       17.54862  -0.00152   0.00000  -0.00513  -0.00340  17.54523
   X39      -18.37403   0.00411   0.00000  -0.00511  -0.00700 -18.38102
   Y39       -5.69312   0.00124   0.00000   0.01174   0.01914  -5.67397
   Z39       17.66454  -0.00181   0.00000  -0.00629  -0.00839  17.65614
   X40      -12.14325   0.00361   0.00000   0.04805   0.05153 -12.09172
   Y40        6.45893  -0.00572   0.00000   0.01277   0.01786   6.47678
   Z40       16.32479   0.00045   0.00000  -0.00731  -0.00523  16.31956
   X41       -5.59666  -0.00115   0.00000  -0.01152  -0.01606  -5.61272
   Y41      -12.18884   0.00346   0.00000   0.00018   0.00244 -12.18641
   Z41       16.50892   0.00133   0.00000   0.00386   0.00142  16.51034
   X42       -3.43533   0.00004   0.00000   0.00172   0.00331  -3.43202
   Y42        1.46124   0.00059   0.00000   0.00595   0.00795   1.46918
   Z42       14.15709   0.00030   0.00000  -0.00072   0.00097  14.15806
   X43      -14.38177   0.00054   0.00000  -0.00092  -0.00310 -14.38488
   Y43       -7.30200  -0.00085   0.00000   0.00636   0.01301  -7.28899
   Z43       14.29899  -0.00003   0.00000  -0.00027  -0.00236  14.29663
   X44       -8.60045   0.00164   0.00000   0.02136   0.02346  -8.57699
   Y44        4.18252  -0.00037   0.00000   0.00295   0.00558   4.18810
   Z44       19.69277   0.00030   0.00000   0.00382   0.00567  19.69844
   X45       -9.18101  -0.00071   0.00000  -0.01465  -0.01857  -9.19959
   Y45       -9.83046  -0.00054   0.00000   0.00526   0.00810  -9.82236
   Z45       19.87796  -0.00023   0.00000  -0.00060  -0.00280  19.87516
   X46       -3.11925  -0.00163   0.00000   0.00160   0.00026  -3.11900
   Y46       -6.57882   0.00269   0.00000   0.00676   0.00984  -6.56898
   Z46        9.85731   0.00303   0.00000  -0.00227  -0.00283   9.85448
   X47      -14.77522   0.00304   0.00000  -0.01115  -0.00945 -14.78466
   Y47        0.51622  -0.00324   0.00000   0.00618   0.01429   0.53051
   Z47        9.71488   0.00500   0.00000   0.00940   0.00948   9.72436
   X48      -15.19131   0.00272   0.00000  -0.00127  -0.00163 -15.19294
   Y48       -0.35328   0.00017   0.00000   0.02256   0.02675  -0.32653
   Z48       24.17355  -0.00295   0.00000  -0.00093  -0.00114  24.17240
   X49       -2.53193  -0.00260   0.00000  -0.00038  -0.00286  -2.53479
   Y49       -5.27138  -0.00030   0.00000  -0.00880  -0.01004  -5.28142
   Z49       24.18638  -0.00267   0.00000   0.00222   0.00210  24.18848
   X50       -2.38080   0.00773   0.00000   0.00618   0.00642  -2.37438
   Y50       -0.98010   0.00271   0.00000   0.00718   0.00799  -0.97211
   Z50       16.71560   0.00122   0.00000   0.00606   0.00717  16.72278
   X51      -15.43090  -0.00805   0.00000  -0.00840  -0.00978 -15.44068
   Y51       -4.73937  -0.00212   0.00000   0.00765   0.01404  -4.72533
   Z51       16.79457   0.00146   0.00000   0.00627   0.00478  16.79935
   X52      -11.24045  -0.00320   0.00000   0.02036   0.02248 -11.21797
   Y52        3.50997   0.01017   0.00000   0.01637   0.02087   3.53084
   Z52       17.09686  -0.00170   0.00000  -0.00797  -0.00661  17.09025
   X53       -6.54640   0.00256   0.00000  -0.00868  -0.01204  -6.55845
   Y53       -9.22749  -0.00767   0.00000  -0.00328  -0.00084  -9.22833
   Z53       17.31412  -0.00076   0.00000  -0.00612  -0.00784  17.30628
   X54       -8.01643   0.00000   0.00000  -0.00114  -0.00236  -8.01880
   Y54       -5.82719   0.00010   0.00000  -0.00374   0.00098  -5.82621
   Z54       11.49705   0.00029   0.00000  -0.01229  -0.01322  11.48383
   X55       -9.77584  -0.00004   0.00000  -0.00334  -0.00208  -9.77792
   Y55       -0.07908  -0.00005   0.00000   0.01959   0.02509  -0.05399
   Z55       11.39669   0.00008   0.00000  -0.01507  -0.01457  11.38212
   X56      -11.67404   0.00012   0.00000  -0.01285  -0.01449 -11.68853
   Y56       -3.77250  -0.00039   0.00000   0.00591   0.00907  -3.76343
   Z56       22.50769  -0.00009   0.00000   0.01267   0.01190  22.51959
   X57       -6.05115   0.00029   0.00000   0.01272   0.01192  -6.03923
   Y57       -1.79988  -0.00015   0.00000   0.00585   0.00659  -1.79329
   Z57       22.51856  -0.00015   0.00000   0.01472   0.01517  22.53373
   X58       -8.31968   0.00085   0.00000   0.01616   0.01833  -8.30135
   Y58        3.01560  -0.00115   0.00000   0.01137   0.01526   3.03086
   Z58       14.85142  -0.00043   0.00000  -0.01301  -0.01146  14.83997
   X59       -9.45653   0.00011   0.00000  -0.00664  -0.00955  -9.46608
   Y59       -8.80087  -0.00001   0.00000  -0.00562  -0.00128  -8.80215
   Z59       15.00928  -0.00013   0.00000  -0.01164  -0.01358  14.99570
   X60       -4.44676   0.00011   0.00000   0.01430   0.01517  -4.43160
   Y60        1.11519  -0.00017   0.00000   0.00941   0.01045   1.12565
   Z60       19.02540  -0.00009   0.00000   0.01308   0.01455  19.03995
   X61      -13.33852   0.00014   0.00000  -0.01519  -0.01773 -13.35625
   Y61       -6.79793   0.00004   0.00000   0.00379   0.00862  -6.78931
   Z61       19.13816   0.00008   0.00000   0.01152   0.00969  19.14785
   X62       -4.86689  -0.00092   0.00000  -0.00725  -0.00950  -4.87639
   Y62       -7.29955   0.00050   0.00000  -0.00561  -0.00319  -7.30274
   Z62       14.86027  -0.00003   0.00000  -0.00798  -0.00895  14.85132
   X63      -12.95480   0.00099   0.00000   0.01279   0.01433 -12.94047
   Y63        1.48282  -0.00113   0.00000   0.01929   0.02519   1.50802
   Z63       14.75193  -0.00014   0.00000  -0.00814  -0.00756  14.74437
   X64      -14.82436   0.00089   0.00000  -0.00763  -0.00821 -14.83256
   Y64       -2.20323  -0.00070   0.00000   0.00692   0.01237  -2.19086
   Z64       19.19758  -0.00035   0.00000   0.00652   0.00582  19.20341
   X65       -2.97904  -0.00086   0.00000   0.00598   0.00486  -2.97418
   Y65       -3.48003   0.00042   0.00000   0.00783   0.00820  -3.47183
   Z65       19.17900  -0.00015   0.00000   0.00781   0.00815  19.18714
   X66       -6.42135  -0.01536   0.00000  -0.02694  -0.02701  -6.44836
   Y66       -2.12244  -0.00428   0.00000  -0.00147   0.00154  -2.12091
   Z66       15.15316   0.01100   0.00000   0.01632   0.01663  15.16979
   X67      -11.37979   0.01558   0.00000   0.02381   0.02307 -11.35672
   Y67       -3.69400   0.00478   0.00000   0.01612   0.02121  -3.67279
   Z67       15.20805   0.01088   0.00000   0.01754   0.01683  15.22488
   X68       -9.68839   0.00542   0.00000   0.01376   0.01400  -9.67440
   Y68       -0.38287  -0.01626   0.00000  -0.01889  -0.01554  -0.39841
   Z68       18.80228  -0.01141   0.00000  -0.01579  -0.01537  18.78691
   X69       -8.05496  -0.00559   0.00000  -0.01482  -0.01668  -8.07164
   Y69       -5.31873   0.01542   0.00000   0.03007   0.03272  -5.28601
   Z69       18.85835  -0.01161   0.00000  -0.01672  -0.01750  18.84085
   X70       -6.12340   0.00041   0.00000  -0.00546  -0.00902  -6.13242
   Y70      -11.51206  -0.00163   0.00000  -0.00628  -0.00216 -11.51422
   Z70       10.74458  -0.00120   0.00000  -0.01171  -0.01403  10.73055
   X71       -0.33286   0.00149   0.00000   0.01320   0.01311  -0.31975
   Y71        0.05093   0.00067   0.00000   0.00488   0.00295   0.05387
   Z71       23.29976   0.00115   0.00000   0.01258   0.01422  23.31399
   X72      -17.46229  -0.00164   0.00000  -0.01588  -0.01837 -17.48066
   Y72       -5.52720  -0.00036   0.00000   0.00997   0.01535  -5.51185
   Z72       23.40522   0.00133   0.00000   0.01050   0.00855  23.41377
   X73       -8.89111  -0.00023   0.00000  -0.00155  -0.00215  -8.89326
   Y73       -2.87258   0.00030   0.00000   0.00672   0.01025  -2.86232
   Z73       16.99914   0.00094   0.00000   0.00146   0.00127  17.00041
         Item               Value     Threshold  Converged?
 Maximum Force            0.016260     0.000450     NO 
 RMS     Force            0.003793     0.000300     NO 
 Maximum Displacement     0.116605     0.001800     NO 
 RMS     Displacement     0.020067     0.001200     NO 
 Predicted change in Energy=-2.731960D-03
 GradGradGradGradGradGradGradGradGradGradGradGradGradGradGradGradGradGrad

 Unable to Open any file for archive entry.
 1\1\GINC-X11P1N2\Force\RwB97XD\def2SVP\C8H8Cl1K3O40V1W12(1-)\MAYUMIAO\
 01-Jun-2024\0\\# def2svp wb97xd scrf=(smd,solvent=acetonitrile) g09def
 ault scf=(xqc,maxcycle=64) force guess=read nosymm\\Title Card\\-1,1\C
 l,-9.92915895,7.71794554,10.41818721\C,-8.31318082,4.24981213,12.23876
 723\C,-9.06352668,3.92442148,11.0944724\C,-10.00751155,2.88934533,11.1
 9997506\C,-10.18668032,2.19364866,12.39147435\C,-9.42849917,2.52012027
 ,13.51496153\C,-8.48996332,3.5514082,13.43134392\H,-7.57765973,5.05570
 679,12.19925695\H,-10.59720158,2.62698217,10.3182041\H,-10.91330335,1.
 37937109,12.43520157\H,-9.55822745,1.96717149,14.44845927\H,-7.8847360
 7,3.80970549,14.30304627\C,-8.91001086,4.61533483,9.81355315\C,-8.0796
 769,5.63717836,9.56593069\H,-9.60688821,4.30811873,9.02481908\H,-8.059
 70057,6.12472125,8.59105761\H,-7.38696707,6.03382524,10.31204485\O,-1.
 01759024,-1.76156194,7.46057321\O,-8.40247707,-1.3266365,7.46470156\O,
 -7.0576845,1.33416214,10.49260921\O,-2.34051172,-4.34293867,10.5625487
 1\W,-3.43444302,0.74953683,6.50773175\W,-6.00997547,-3.82604003,6.5894
 4497\W,-3.63506315,0.91822613,11.39977605\W,-5.77818552,-3.86577493,11
 .46770427\W,-2.46965204,-2.54739529,6.37748292\W,-6.95092417,-0.528371
 53,6.35012033\W,-6.83380716,-0.25442093,11.59898494\W,-2.56925097,-2.6
 9039236,11.62943118\O,-3.20763712,1.95646582,5.34673118\O,-6.13643822,
 -5.09068281,5.46057827\O,-2.70184945,1.76970749,12.53724632\O,-6.70316
 555,-4.67915291,12.6386398\O,-2.69698081,-0.86432802,5.60442364\O,-6.7
 1717555,-2.26848763,5.64535016\O,-5.32313744,0.56632957,12.35479557\O,
 -4.06867727,-3.5104025,12.39981445\O,0.30018572,-0.00646302,9.28633169
 \O,-9.72311556,-3.01266681,9.34767024\O,-6.42592956,3.41791703,8.63870
 523\O,-2.96162446,-6.45005812,8.73614678\O,-1.81789901,0.77325226,7.49
 160884\O,-7.61050536,-3.86405174,7.56670068\O,-4.55116342,2.21329633,1
 0.42096637\O,-4.85838241,-5.20205551,10.51896275\O,-1.65063665,-3.4813
 6396,5.21626447\O,-7.81870729,0.27316933,5.14089107\O,-8.03889688,-0.1
 8694716,12.79208986\O,-1.33983735,-2.78949588,12.79888162\W,-1.2598644
 6,-0.51864786,8.84551703\W,-8.16567842,-2.50796835,8.88730597\W,-5.948
 19025,1.85739522,9.04726973\W,-3.46420731,-4.88297974,9.16223699\O,-4.
 24211464,-3.08361379,6.08397554\O,-5.17315413,-0.04184506,6.03086956\O
 ,-6.17763449,-1.99632125,11.91055476\O,-3.20213177,-0.95245411,11.9163
 108\O,-4.40258765,1.59578714,7.8590354\O,-5.0041777,-4.65721938,7.9425
 7028\O,-2.35312605,0.59013557,10.06780938\O,-7.05844136,-3.59730947,10
 .12747761\O,-2.57544535,-3.8627539,7.86371624\O,-6.85538405,0.78467625
 ,7.80638772\O,-7.84471144,-1.16589892,10.15892276\O,-1.576438,-1.84155
 383,10.14908849\O,-3.39803439,-1.12314922,8.01870895\O,-6.02192447,-1.
 95478065,8.04775151\O,-5.12687776,-0.20260478,9.94973834\O,-4.26250046
 ,-2.81455117,9.97940796\K,-3.24036382,-6.09192217,5.68578615\K,-0.1761
 4211,0.02694893,12.32970292\K,-9.24064411,-2.92486889,12.38551065\V,-4
 .70497252,-1.52010131,8.99555988\\Version=ES64L-G16RevC.01\HF=-7327.69
 89995\RMSD=8.881e-10\RMSF=3.793e-03\Dipole=10.4593862,-20.9709322,2.50
 31575\Quadrupole=-92.4779098,69.9981654,22.4797445,322.6886999,342.751
 0076,-335.1243276\PG=C01 [X(C8H8Cl1K3O40V1W12)]\\@
 The archive entry for this job was punched.


 READER, WHETHER YOU BE DILETTANTE OR PROFESSOR ... SHOW YOURSELF TO BE
 MORE HUMAN THAN CRITICAL, AND THEN YOUR PLEASURE WILL INCREASE.
                                           -- DOMENICO SCARLATTI (1738)
 Job cpu time:       0 days 11 hours 50 minutes 42.0 seconds.
 Elapsed time:       0 days  0 hours 13 minutes 30.8 seconds.
 File lengths (MBytes):  RWF=   1245 Int=      0 D2E=      0 Chk=    249 Scr=      1
 Normal termination of Gaussian 16 at Sat Jun  1 16:13:35 2024.
