 Entering Gaussian System, Link 0=g16
 Input=JOBS/9_B.gjf
 Output=JOBS/9_B.log
 Initial command:
 /data/app/gaussian/C01-avx2//g16/l1.exe "/tmp/Gau-591544.inp" -scrdir="/tmp/"
 Entering Link 1 = /data/app/gaussian/C01-avx2//g16/l1.exe PID=    591545.
  
 Copyright (c) 1988-2019, Gaussian, Inc.  All Rights Reserved.
  
 This is part of the Gaussian(R) 16 program.  It is based on
 the Gaussian(R) 09 system (copyright 2009, Gaussian, Inc.),
 the Gaussian(R) 03 system (copyright 2003, Gaussian, Inc.),
 the Gaussian(R) 98 system (copyright 1998, Gaussian, Inc.),
 the Gaussian(R) 94 system (copyright 1995, Gaussian, Inc.),
 the Gaussian 92(TM) system (copyright 1992, Gaussian, Inc.),
 the Gaussian 90(TM) system (copyright 1990, Gaussian, Inc.),
 the Gaussian 88(TM) system (copyright 1988, Gaussian, Inc.),
 the Gaussian 86(TM) system (copyright 1986, Carnegie Mellon
 University), and the Gaussian 82(TM) system (copyright 1983,
 Carnegie Mellon University). Gaussian is a federally registered
 trademark of Gaussian, Inc.
  
 This software contains proprietary and confidential information,
 including trade secrets, belonging to Gaussian, Inc.
  
 This software is provided under written license and may be
 used, copied, transmitted, or stored only in accord with that
 written license.
  
 The following legend is applicable only to US Government
 contracts under FAR:
  
                    RESTRICTED RIGHTS LEGEND
  
 Use, reproduction and disclosure by the US Government is
 subject to restrictions as set forth in subparagraphs (a)
 and (c) of the Commercial Computer Software - Restricted
 Rights clause in FAR 52.227-19.
  
 Gaussian, Inc.
 340 Quinnipiac St., Bldg. 40, Wallingford CT 06492
  
  
 ---------------------------------------------------------------
 Warning -- This program may not be used in any manner that
 competes with the business of Gaussian, Inc. or will provide
 assistance to any competitor of Gaussian, Inc.  The licensee
 of this program is prohibited from giving any competitor of
 Gaussian, Inc. access to this program.  By using this program,
 the user acknowledges that Gaussian, Inc. is engaged in the
 business of creating and licensing software in the field of
 computational chemistry and represents and warrants to the
 licensee that it is not a competitor of Gaussian, Inc. and that
 it will not use this program in any manner prohibited above.
 ---------------------------------------------------------------
  

 Cite this work as:
 Gaussian 16, Revision C.01,
 M. J. Frisch, G. W. Trucks, H. B. Schlegel, G. E. Scuseria, 
 M. A. Robb, J. R. Cheeseman, G. Scalmani, V. Barone, 
 G. A. Petersson, H. Nakatsuji, X. Li, M. Caricato, A. V. Marenich, 
 J. Bloino, B. G. Janesko, R. Gomperts, B. Mennucci, H. P. Hratchian, 
 J. V. Ortiz, A. F. Izmaylov, J. L. Sonnenberg, D. Williams-Young, 
 F. Ding, F. Lipparini, F. Egidi, J. Goings, B. Peng, A. Petrone, 
 T. Henderson, D. Ranasinghe, V. G. Zakrzewski, J. Gao, N. Rega, 
 G. Zheng, W. Liang, M. Hada, M. Ehara, K. Toyota, R. Fukuda, 
 J. Hasegawa, M. Ishida, T. Nakajima, Y. Honda, O. Kitao, H. Nakai, 
 T. Vreven, K. Throssell, J. A. Montgomery, Jr., J. E. Peralta, 
 F. Ogliaro, M. J. Bearpark, J. J. Heyd, E. N. Brothers, K. N. Kudin, 
 V. N. Staroverov, T. A. Keith, R. Kobayashi, J. Normand, 
 K. Raghavachari, A. P. Rendell, J. C. Burant, S. S. Iyengar, 
 J. Tomasi, M. Cossi, J. M. Millam, M. Klene, C. Adamo, R. Cammi, 
 J. W. Ochterski, R. L. Martin, K. Morokuma, O. Farkas, 
 J. B. Foresman, and D. J. Fox, Gaussian, Inc., Wallingford CT, 2019.
 
 ******************************************
 Gaussian 16:  ES64L-G16RevC.01  3-Jul-2019
                 1-Jun-2024 
 ******************************************
 %chk=b.chk
 %nprocshared=56
 Will use up to   56 processors via shared memory.
 %mem=96gb
 ----------------------------------------------------------------------
 # def2svp wb97xd scrf=(smd,solvent=acetonitrile) g09default scf=(xqc,m
 axcycle=64) force guess=read nosymm
 ----------------------------------------------------------------------
 1/10=7,30=1,38=1,158=3,167=1/1,3;
 2/12=2,15=1,17=6,18=5,40=1/2;
 3/5=43,7=101,11=2,25=1,27=10,30=1,70=32201,71=1,72=2,74=-58,75=-4,116=-2,158=3/1,2,3;
 4/5=1,60=-1/1;
 5/5=2,7=64,8=3,13=1,38=6,53=2,87=10/2,8;
 6/7=2,8=2,9=2,10=2,28=1,87=10/1;
 7/29=1,30=1,87=10/1,2,3,16;
 1/10=7,30=1,158=3,167=1/3;
 99//99;
 Using 2006 physical constants.
 ----------
 Title Card
 ----------
 Symbolic Z-matrix:
 Charge = -1 Multiplicity = 1
 17                   -9.92916   7.71795   10.41819 
 6                    -8.31318   4.24981   12.23877 
 6                    -9.06353   3.92442   11.09447 
 6                    -10.00751   2.88935   11.19998 
 6                    -10.18668   2.19365   12.39147 
 6                    -9.4285    2.52012   13.51496 
 6                    -8.48996   3.55141   13.43134 
 1                    -7.57766   5.05571   12.19926 
 1                    -10.5972   2.62698   10.3182 
 1                    -10.9133   1.37937   12.4352 
 1                    -9.55823   1.96717   14.44846 
 1                    -7.88474   3.80971   14.30305 
 6                    -8.91001   4.61533   9.81355 
 6                    -8.07968   5.63718   9.56593 
 1                    -9.60689   4.30812   9.02482 
 1                    -8.0597    6.12472   8.59106 
 1                    -7.38697   6.03383   10.31204 
 8                    -1.01759  -1.76156   7.46057 
 8                    -8.40248  -1.32664   7.4647 
 8                    -7.05768   1.33416   10.49261 
 8                    -2.34051  -4.34294   10.56255 
 74                   -3.43444   0.74954   6.50773 
 74                   -6.00998  -3.82604   6.58944 
 74                   -3.63506   0.91823   11.39978 
 74                   -5.77819  -3.86577   11.4677 
 74                   -2.46965  -2.5474    6.37748 
 74                   -6.95092  -0.52837   6.35012 
 74                   -6.83381  -0.25442   11.59898 
 74                   -2.56925  -2.69039   11.62943 
 8                    -3.20764   1.95647   5.34673 
 8                    -6.13644  -5.09068   5.46058 
 8                    -2.70185   1.76971   12.53725 
 8                    -6.70317  -4.67915   12.63864 
 8                    -2.69698  -0.86433   5.60442 
 8                    -6.71718  -2.26849   5.64535 
 8                    -5.32314   0.56633   12.3548 
 8                    -4.06868  -3.5104    12.39981 
 8                     0.30019  -0.00646   9.28633 
 8                    -9.72312  -3.01267   9.34767 
 8                    -6.42593   3.41792   8.63871 
 8                    -2.96162  -6.45006   8.73615 
 8                    -1.8179    0.77325   7.49161 
 8                    -7.61051  -3.86405   7.5667 
 8                    -4.55116   2.2133    10.42097 
 8                    -4.85838  -5.20206   10.51896 
 8                    -1.65064  -3.48136   5.21626 
 8                    -7.81871   0.27317   5.14089 
 8                    -8.0389   -0.18695   12.79209 
 8                    -1.33984  -2.7895    12.79888 
 74                   -1.25986  -0.51865   8.84552 
 74                   -8.16568  -2.50797   8.88731 
 74                   -5.94819   1.8574    9.04727 
 74                   -3.46421  -4.88298   9.16224 
 8                    -4.24211  -3.08361   6.08398 
 8                    -5.17315  -0.04185   6.03087 
 8                    -6.17763  -1.99632   11.91055 
 8                    -3.20213  -0.95245   11.91631 
 8                    -4.40259   1.59579   7.85904 
 8                    -5.00418  -4.65722   7.94257 
 8                    -2.35313   0.59014   10.06781 
 8                    -7.05844  -3.59731   10.12748 
 8                    -2.57545  -3.86275   7.86372 
 8                    -6.85538   0.78468   7.80639 
 8                    -7.84471  -1.1659    10.15892 
 8                    -1.57644  -1.84155   10.14909 
 8                    -3.39803  -1.12315   8.01871 
 8                    -6.02192  -1.95478   8.04775 
 8                    -5.12688  -0.2026    9.94974 
 8                    -4.2625   -2.81455   9.97941 
 19                   -3.24036  -6.09192   5.68579 
 19                   -0.17614   0.02695   12.3297 
 19                   -9.24064  -2.92487   12.38551 
 23                   -4.70497  -1.5201    8.99556 
 

 GradGradGradGradGradGradGradGradGradGradGradGradGradGradGradGradGradGrad
 Berny optimization.
 Initialization pass.
 Trust Radius=3.00D-01 FncErr=1.00D-07 GrdErr=1.00D-07 EigMax=2.50D+02 EigMin=1.00D-04
 Number of steps in this run=      2 maximum allowed number of steps=      2.
 GradGradGradGradGradGradGradGradGradGradGradGradGradGradGradGradGradGrad

 Symmetry turned off by external request.
 Stoichiometry    C8H8ClK3O40VW12(1-)
 Framework group  C1[X(C8H8ClK3O40VW12)]
 Deg. of freedom   213
 Full point group                 C1      NOp   1
                          Input orientation:                          
 ---------------------------------------------------------------------
 Center     Atomic      Atomic             Coordinates (Angstroms)
 Number     Number       Type             X           Y           Z
 ---------------------------------------------------------------------
      1         17           0       -9.929159    7.717946   10.418187
      2          6           0       -8.313181    4.249812   12.238767
      3          6           0       -9.063527    3.924421   11.094472
      4          6           0      -10.007512    2.889345   11.199975
      5          6           0      -10.186680    2.193649   12.391474
      6          6           0       -9.428499    2.520120   13.514962
      7          6           0       -8.489963    3.551408   13.431344
      8          1           0       -7.577660    5.055707   12.199257
      9          1           0      -10.597202    2.626982   10.318204
     10          1           0      -10.913303    1.379371   12.435202
     11          1           0       -9.558227    1.967171   14.448459
     12          1           0       -7.884736    3.809705   14.303046
     13          6           0       -8.910011    4.615335    9.813553
     14          6           0       -8.079677    5.637178    9.565931
     15          1           0       -9.606888    4.308119    9.024819
     16          1           0       -8.059701    6.124721    8.591058
     17          1           0       -7.386967    6.033825   10.312045
     18          8           0       -1.017590   -1.761562    7.460573
     19          8           0       -8.402477   -1.326637    7.464702
     20          8           0       -7.057684    1.334162   10.492609
     21          8           0       -2.340512   -4.342939   10.562549
     22         74           0       -3.434443    0.749537    6.507732
     23         74           0       -6.009975   -3.826040    6.589445
     24         74           0       -3.635063    0.918226   11.399776
     25         74           0       -5.778186   -3.865775   11.467704
     26         74           0       -2.469652   -2.547395    6.377483
     27         74           0       -6.950924   -0.528372    6.350120
     28         74           0       -6.833807   -0.254421   11.598985
     29         74           0       -2.569251   -2.690392   11.629431
     30          8           0       -3.207637    1.956466    5.346731
     31          8           0       -6.136438   -5.090683    5.460578
     32          8           0       -2.701849    1.769707   12.537246
     33          8           0       -6.703166   -4.679153   12.638640
     34          8           0       -2.696981   -0.864328    5.604424
     35          8           0       -6.717176   -2.268488    5.645350
     36          8           0       -5.323137    0.566330   12.354796
     37          8           0       -4.068677   -3.510403   12.399814
     38          8           0        0.300186   -0.006463    9.286332
     39          8           0       -9.723116   -3.012667    9.347670
     40          8           0       -6.425930    3.417917    8.638705
     41          8           0       -2.961624   -6.450058    8.736147
     42          8           0       -1.817899    0.773252    7.491609
     43          8           0       -7.610505   -3.864052    7.566701
     44          8           0       -4.551163    2.213296   10.420966
     45          8           0       -4.858382   -5.202056   10.518963
     46          8           0       -1.650637   -3.481364    5.216264
     47          8           0       -7.818707    0.273169    5.140891
     48          8           0       -8.038897   -0.186947   12.792090
     49          8           0       -1.339837   -2.789496   12.798882
     50         74           0       -1.259864   -0.518648    8.845517
     51         74           0       -8.165678   -2.507968    8.887306
     52         74           0       -5.948190    1.857395    9.047270
     53         74           0       -3.464207   -4.882980    9.162237
     54          8           0       -4.242115   -3.083614    6.083976
     55          8           0       -5.173154   -0.041845    6.030870
     56          8           0       -6.177634   -1.996321   11.910555
     57          8           0       -3.202132   -0.952454   11.916311
     58          8           0       -4.402588    1.595787    7.859035
     59          8           0       -5.004178   -4.657219    7.942570
     60          8           0       -2.353126    0.590136   10.067809
     61          8           0       -7.058441   -3.597309   10.127478
     62          8           0       -2.575445   -3.862754    7.863716
     63          8           0       -6.855384    0.784676    7.806388
     64          8           0       -7.844711   -1.165899   10.158923
     65          8           0       -1.576438   -1.841554   10.149088
     66          8           0       -3.398034   -1.123149    8.018709
     67          8           0       -6.021924   -1.954781    8.047752
     68          8           0       -5.126878   -0.202605    9.949738
     69          8           0       -4.262500   -2.814551    9.979408
     70         19           0       -3.240364   -6.091922    5.685786
     71         19           0       -0.176142    0.026949   12.329703
     72         19           0       -9.240644   -2.924869   12.385511
     73         23           0       -4.704973   -1.520101    8.995560
 ---------------------------------------------------------------------
 Rotational constants (GHZ):           0.0172403           0.0133740           0.0131627
 Standard basis: def2SVP (5D, 7F)
  1217 basis functions,  2313 primitive gaussians,  1337 cartesian basis functions
   321 alpha electrons      321 beta electrons
       nuclear repulsion energy     21056.0735231082 Hartrees.
 NAtoms=   73 NActive=   73 NUniq=   73 SFac= 1.00D+00 NAtFMM=   60 NAOKFM=T Big=T
 Integral buffers will be    131072 words long.
 Raffenetti 2 integral format.
 Two-electron integral symmetry is turned off.
 Nuclear repulsion after empirical dispersion term =    21055.7950967416 Hartrees.
 Force PCM accuracy= 1.00D-10.
 ------------------------------------------------------------------------------
 Polarizable Continuum Model (PCM)
 =================================
 Model                : PCM (using non-symmetric T matrix).
 Atomic radii         : SMD-Coulomb.
 Polarization charges : Total charges.
 Charge compensation  : None.
 Solution method      : On-the-fly selection.
 Cavity type          : VdW (van der Waals Surface) (Alpha=1.000).
 Cavity algorithm     : GePol (No added spheres)
                        Default sphere list used, NSphG=   73.
                        Lebedev-Laikov grids with approx.  5.0 points / Ang**2.
                        Smoothing algorithm: York/Karplus (Gamma=1.0000).
                        Polarization charges: spherical gaussians, with
                                              point-specific exponents (IZeta= 3).
                        Self-potential: point-specific (ISelfS= 7).
                        Self-field    : sphere-specific E.n sum rule (ISelfD= 2).
 1st derivatives      : Analytical E(r).r(x)/FMM algorithm (CHGder, D1EAlg=3).
                        Cavity 1st derivative terms included.
 Solvent              : Acetonitrile, Eps=  35.688000 Eps(inf)=   1.806874
 ------------------------------------------------------------------------------
 ------------------------------------------------------------------------------
 Atomic radii for non-electrostatic terms: SMD-CDS.
 ------------------------------------------------------------------------------
 Nuclear repulsion after PCM non-electrostatic terms =    21055.7892998021 Hartrees.
 One-electron integrals computed using PRISM.
   1 Symmetry operations used in ECPInt.
 ECPInt:  NShTT=  127765 NPrTT=  468030 LenC2=   96904 LenP2D=  221932.
 LDataN:  DoStor=T MaxTD1= 8 Len=  415
 NBasis=  1217 RedAO= T EigKep=  1.34D-04  NBF=  1217
 NBsUse=  1217 1.00D-06 EigRej= -1.00D+00 NBFU=  1217
 Defaulting to unpruned grid for atomic number  74.
 Defaulting to unpruned grid for atomic number  74.
 Defaulting to unpruned grid for atomic number  74.
 Defaulting to unpruned grid for atomic number  74.
 Defaulting to unpruned grid for atomic number  74.
 Defaulting to unpruned grid for atomic number  74.
 Defaulting to unpruned grid for atomic number  74.
 Defaulting to unpruned grid for atomic number  74.
 Initial guess from the checkpoint file:  "b.chk"
 B after Tr=     0.000574   -0.000078    0.000346
         Rot=    1.000000   -0.000016    0.000007    0.000040 Ang=  -0.01 deg.
 Initial guess <Sx>= 0.0000 <Sy>= 0.0000 <Sz>= 0.0000 <S**2>= 1.0155 S= 0.6249
 Requested convergence on RMS density matrix=1.00D-08 within  64 cycles.
 Requested convergence on MAX density matrix=1.00D-06.
 Requested convergence on             energy=1.00D-06.
 No special actions if energy rises.
 Defaulting to unpruned grid for atomic number  74.
 Defaulting to unpruned grid for atomic number  74.
 Defaulting to unpruned grid for atomic number  74.
 Defaulting to unpruned grid for atomic number  74.
 Defaulting to unpruned grid for atomic number  74.
 Defaulting to unpruned grid for atomic number  74.
 Defaulting to unpruned grid for atomic number  74.
 Defaulting to unpruned grid for atomic number  74.
 Defaulting to unpruned grid for atomic number  74.
 Defaulting to unpruned grid for atomic number  74.
 Defaulting to unpruned grid for atomic number  74.
 Defaulting to unpruned grid for atomic number  74.
 Defaulting to unpruned grid for atomic number  74.
 Defaulting to unpruned grid for atomic number  74.
 Defaulting to unpruned grid for atomic number  74.
 Defaulting to unpruned grid for atomic number  74.
 Defaulting to unpruned grid for atomic number  74.
 Defaulting to unpruned grid for atomic number  74.
 Defaulting to unpruned grid for atomic number  74.
 Defaulting to unpruned grid for atomic number  74.
 Defaulting to unpruned grid for atomic number  74.
 Defaulting to unpruned grid for atomic number  74.
 Defaulting to unpruned grid for atomic number  74.
 Defaulting to unpruned grid for atomic number  74.
 Defaulting to unpruned grid for atomic number  74.
 Defaulting to unpruned grid for atomic number  74.
 Defaulting to unpruned grid for atomic number  74.
 Defaulting to unpruned grid for atomic number  74.
 Defaulting to unpruned grid for atomic number  74.
 Defaulting to unpruned grid for atomic number  74.
 Defaulting to unpruned grid for atomic number  74.
 Defaulting to unpruned grid for atomic number  74.
 Defaulting to unpruned grid for atomic number  74.
 Defaulting to unpruned grid for atomic number  74.
 Defaulting to unpruned grid for atomic number  74.
 Defaulting to unpruned grid for atomic number  74.
 Defaulting to unpruned grid for atomic number  74.
 Defaulting to unpruned grid for atomic number  74.
 Defaulting to unpruned grid for atomic number  74.
 Defaulting to unpruned grid for atomic number  74.
 Defaulting to unpruned grid for atomic number  74.
 Defaulting to unpruned grid for atomic number  74.
 Defaulting to unpruned grid for atomic number  74.
 Defaulting to unpruned grid for atomic number  74.
 Defaulting to unpruned grid for atomic number  74.
 Defaulting to unpruned grid for atomic number  74.
 Defaulting to unpruned grid for atomic number  74.
 Defaulting to unpruned grid for atomic number  74.
 Defaulting to unpruned grid for atomic number  74.
 Defaulting to unpruned grid for atomic number  74.
 Defaulting to unpruned grid for atomic number  74.
 Defaulting to unpruned grid for atomic number  74.
 Defaulting to unpruned grid for atomic number  74.
 Defaulting to unpruned grid for atomic number  74.
 Defaulting to unpruned grid for atomic number  74.
 Defaulting to unpruned grid for atomic number  74.
 Inv3:  Mode=1 IEnd=    85354668.
 Iteration    1 A*A^-1 deviation from unit magnitude is 3.55D-15 for   3927.
 Iteration    1 A*A^-1 deviation from orthogonality  is 3.16D-15 for    878     26.
 Iteration    1 A^-1*A deviation from unit magnitude is 3.33D-15 for   1046.
 Iteration    1 A^-1*A deviation from orthogonality  is 4.91D-12 for   5262   5183.
 Restarting incremental Fock formation.
 Restarting incremental Fock formation.
 Error on total polarization charges =  0.01570
 SCF Done:  E(UwB97XD) =  -7327.69476287     A.U. after   46 cycles
            NFock= 46  Conv=0.10D-08     -V/T= 2.0830
 <Sx>= 0.0000 <Sy>= 0.0000 <Sz>= 0.0000 <S**2>= 1.0148 S= 0.6246
 <L.S>=  0.00000000000    
 SMD-CDS (non-electrostatic) energy       (kcal/mol) =      -3.64
 (included in total energy above)
 Annihilation of the first spin contaminant:
 S**2 before annihilation     1.0148,   after     0.1191
 QCSCF skips out because SCF is already converged.

 **********************************************************************

            Population analysis using the SCF Density.

 **********************************************************************

 Alpha  occ. eigenvalues -- -197.09176-129.98958-129.98946-129.98905-101.61479
 Alpha  occ. eigenvalues --  -22.42955 -19.28425 -19.28410 -19.28375 -19.28368
 Alpha  occ. eigenvalues --  -19.28346 -19.28330 -19.28326 -19.28310 -19.28276
 Alpha  occ. eigenvalues --  -19.28270 -19.28148 -19.28098 -19.26961 -19.26885
 Alpha  occ. eigenvalues --  -19.26883 -19.26860 -19.26857 -19.26844 -19.26837
 Alpha  occ. eigenvalues --  -19.26833 -19.26823 -19.26822 -19.26802 -19.26795
 Alpha  occ. eigenvalues --  -19.26792 -19.26786 -19.26784 -19.26773 -19.26764
 Alpha  occ. eigenvalues --  -19.26749 -19.26721 -19.26711 -19.26682 -19.26669
 Alpha  occ. eigenvalues --  -19.26620 -19.26586 -19.23994 -19.23939 -19.23926
 Alpha  occ. eigenvalues --  -19.23895 -18.92520 -18.91433 -18.91383 -13.36361
 Alpha  occ. eigenvalues --  -13.36349 -13.36296 -10.69289 -10.69284 -10.69283
 Alpha  occ. eigenvalues --  -10.69278 -10.69272 -10.69272 -10.69226 -10.69220
 Alpha  occ. eigenvalues --  -10.69218 -10.32910 -10.32427 -10.31719 -10.30865
 Alpha  occ. eigenvalues --  -10.30836 -10.30769 -10.30478 -10.30356  -9.51880
 Alpha  occ. eigenvalues --   -7.26747  -7.26441  -7.26430  -3.21024  -3.21005
 Alpha  occ. eigenvalues --   -3.20992  -3.20975  -3.20968  -3.20953  -3.20940
 Alpha  occ. eigenvalues --   -3.20930  -3.20909  -3.20838  -3.20799  -3.20778
 Alpha  occ. eigenvalues --   -2.77603  -1.85266  -1.85207  -1.85186  -1.85152
 Alpha  occ. eigenvalues --   -1.85050  -1.85020  -1.84991  -1.84980  -1.84950
 Alpha  occ. eigenvalues --   -1.84937  -1.84901  -1.84859  -1.84343  -1.84233
 Alpha  occ. eigenvalues --   -1.84218  -1.84206  -1.84171  -1.84159  -1.84108
 Alpha  occ. eigenvalues --   -1.84079  -1.84058  -1.84050  -1.84020  -1.84012
 Alpha  occ. eigenvalues --   -1.83902  -1.83875  -1.83853  -1.83844  -1.83832
 Alpha  occ. eigenvalues --   -1.83782  -1.83770  -1.83754  -1.83748  -1.83666
 Alpha  occ. eigenvalues --   -1.83660  -1.83637  -1.80867  -1.80536  -1.80506
 Alpha  occ. eigenvalues --   -1.50078  -1.50066  -1.50015  -1.08568  -1.06952
 Alpha  occ. eigenvalues --   -1.06914  -1.06875  -1.06011  -1.05996  -1.05962
 Alpha  occ. eigenvalues --   -1.04578  -1.04564  -1.04559  -1.03963  -1.03938
 Alpha  occ. eigenvalues --   -1.03315  -1.03250  -1.03206  -1.03184  -1.03058
 Alpha  occ. eigenvalues --   -1.03029  -1.02147  -1.02119  -1.02097  -1.02038
 Alpha  occ. eigenvalues --   -1.01998  -1.01985  -1.01921  -1.01875  -1.01770
 Alpha  occ. eigenvalues --   -1.01745  -1.01726  -1.01623  -1.01510  -1.01499
 Alpha  occ. eigenvalues --   -1.01311  -1.00788  -1.00750  -1.00727  -1.00580
 Alpha  occ. eigenvalues --   -0.99536  -0.99465  -0.99393  -0.96091  -0.89352
 Alpha  occ. eigenvalues --   -0.85548  -0.85532  -0.85494  -0.85370  -0.85366
 Alpha  occ. eigenvalues --   -0.85358  -0.85354  -0.85312  -0.85297  -0.84122
 Alpha  occ. eigenvalues --   -0.82449  -0.80531  -0.71846  -0.69525  -0.65006
 Alpha  occ. eigenvalues --   -0.62364  -0.61719  -0.61677  -0.61631  -0.60601
 Alpha  occ. eigenvalues --   -0.59043  -0.59030  -0.59016  -0.58877  -0.58827
 Alpha  occ. eigenvalues --   -0.58802  -0.58791  -0.58739  -0.58555  -0.57181
 Alpha  occ. eigenvalues --   -0.57138  -0.57099  -0.56901  -0.56779  -0.56380
 Alpha  occ. eigenvalues --   -0.56354  -0.56312  -0.55814  -0.55656  -0.55301
 Alpha  occ. eigenvalues --   -0.55290  -0.55257  -0.54390  -0.54156  -0.54095
 Alpha  occ. eigenvalues --   -0.53941  -0.53564  -0.53512  -0.53485  -0.52716
 Alpha  occ. eigenvalues --   -0.52615  -0.52601  -0.52525  -0.52486  -0.51510
 Alpha  occ. eigenvalues --   -0.51493  -0.51487  -0.51419  -0.51374  -0.50704
 Alpha  occ. eigenvalues --   -0.50544  -0.50445  -0.50420  -0.50326  -0.50284
 Alpha  occ. eigenvalues --   -0.50255  -0.50092  -0.50076  -0.50010  -0.49792
 Alpha  occ. eigenvalues --   -0.49746  -0.49678  -0.49345  -0.49312  -0.49146
 Alpha  occ. eigenvalues --   -0.49118  -0.49079  -0.49009  -0.48975  -0.48917
 Alpha  occ. eigenvalues --   -0.48801  -0.48637  -0.48599  -0.48522  -0.47711
 Alpha  occ. eigenvalues --   -0.47694  -0.47094  -0.46377  -0.45910  -0.45888
 Alpha  occ. eigenvalues --   -0.45713  -0.45676  -0.45630  -0.45520  -0.45169
 Alpha  occ. eigenvalues --   -0.45124  -0.45121  -0.44809  -0.44594  -0.44386
 Alpha  occ. eigenvalues --   -0.44351  -0.44338  -0.44146  -0.44124  -0.44064
 Alpha  occ. eigenvalues --   -0.43201  -0.43025  -0.42405  -0.42371  -0.42334
 Alpha  occ. eigenvalues --   -0.42145  -0.42057  -0.42043  -0.42035  -0.41578
 Alpha  occ. eigenvalues --   -0.41549  -0.41517  -0.40997  -0.40942  -0.40770
 Alpha  occ. eigenvalues --   -0.40718  -0.40670  -0.40375  -0.40334  -0.40311
 Alpha  occ. eigenvalues --   -0.40194  -0.40164  -0.40154  -0.40107  -0.39845
 Alpha  occ. eigenvalues --   -0.39233  -0.39097  -0.39088  -0.39059  -0.38848
 Alpha  occ. eigenvalues --   -0.38791  -0.38741  -0.38659  -0.38461  -0.38432
 Alpha  occ. eigenvalues --   -0.38265  -0.38247  -0.38214  -0.37851  -0.37188
 Alpha  occ. eigenvalues --   -0.37134  -0.34281  -0.34247  -0.33500  -0.30427
 Alpha  occ. eigenvalues --   -0.24395
 Alpha virt. eigenvalues --   -0.11025  -0.06238  -0.06195  -0.04735  -0.04689
 Alpha virt. eigenvalues --   -0.04587  -0.01357  -0.01283  -0.01243  -0.01021
 Alpha virt. eigenvalues --   -0.00808  -0.00789  -0.00717  -0.00082   0.00013
 Alpha virt. eigenvalues --    0.00044   0.00794   0.00824   0.00877   0.01077
 Alpha virt. eigenvalues --    0.01161   0.01946   0.01978   0.02006   0.02277
 Alpha virt. eigenvalues --    0.02508   0.02796   0.02872   0.02941   0.03681
 Alpha virt. eigenvalues --    0.03770   0.03917   0.04079   0.04167   0.04467
 Alpha virt. eigenvalues --    0.04489   0.04517   0.04556   0.04744   0.05143
 Alpha virt. eigenvalues --    0.05217   0.06076   0.06574   0.08490   0.08514
 Alpha virt. eigenvalues --    0.08646   0.08698   0.09196   0.09207   0.09637
 Alpha virt. eigenvalues --    0.09897   0.09904   0.09945   0.10006   0.10048
 Alpha virt. eigenvalues --    0.10154   0.10374   0.10629   0.10971   0.10998
 Alpha virt. eigenvalues --    0.11562   0.11665   0.11971   0.12195   0.12255
 Alpha virt. eigenvalues --    0.12422   0.12468   0.12499   0.12935   0.13322
 Alpha virt. eigenvalues --    0.13481   0.13686   0.14033   0.14296   0.14929
 Alpha virt. eigenvalues --    0.15068   0.15158   0.15255   0.15417   0.15848
 Alpha virt. eigenvalues --    0.16174   0.16791   0.17135   0.17761   0.17895
 Alpha virt. eigenvalues --    0.18292   0.18469   0.18598   0.18774   0.19062
 Alpha virt. eigenvalues --    0.19309   0.19383   0.19453   0.19586   0.19617
 Alpha virt. eigenvalues --    0.19674   0.19978   0.20086   0.20701   0.20935
 Alpha virt. eigenvalues --    0.21123   0.21291   0.21387   0.21531   0.21605
 Alpha virt. eigenvalues --    0.21667   0.21923   0.21986   0.22142   0.22326
 Alpha virt. eigenvalues --    0.22416   0.22807   0.23162   0.23281   0.23371
 Alpha virt. eigenvalues --    0.23463   0.23612   0.23847   0.24101   0.24334
 Alpha virt. eigenvalues --    0.24616   0.24764   0.24805   0.25108   0.25253
 Alpha virt. eigenvalues --    0.25550   0.25625   0.25719   0.26362   0.26842
 Alpha virt. eigenvalues --    0.26880   0.27241   0.27412   0.27718   0.27967
 Alpha virt. eigenvalues --    0.28059   0.28454   0.28771   0.28889   0.29162
 Alpha virt. eigenvalues --    0.29391   0.29453   0.29501   0.29644   0.29747
 Alpha virt. eigenvalues --    0.30374   0.30681   0.31222   0.31418   0.31712
 Alpha virt. eigenvalues --    0.31824   0.32459   0.32612   0.32826   0.33438
 Alpha virt. eigenvalues --    0.33811   0.34547   0.35661   0.36872   0.37116
 Alpha virt. eigenvalues --    0.38188   0.38981   0.39103   0.39434   0.39691
 Alpha virt. eigenvalues --    0.40462   0.41477   0.42025   0.42119   0.42277
 Alpha virt. eigenvalues --    0.42408   0.42639   0.42783   0.43452   0.44215
 Alpha virt. eigenvalues --    0.44412   0.44582   0.45041   0.45507   0.45619
 Alpha virt. eigenvalues --    0.45799   0.45935   0.46069   0.46504   0.46762
 Alpha virt. eigenvalues --    0.46998   0.47191   0.47717   0.47954   0.48292
 Alpha virt. eigenvalues --    0.48425   0.48592   0.48738   0.49001   0.49052
 Alpha virt. eigenvalues --    0.49311   0.49806   0.49963   0.50093   0.50122
 Alpha virt. eigenvalues --    0.50142   0.50305   0.50482   0.50603   0.50888
 Alpha virt. eigenvalues --    0.51230   0.51307   0.51640   0.51721   0.52107
 Alpha virt. eigenvalues --    0.52540   0.52823   0.52885   0.53115   0.53450
 Alpha virt. eigenvalues --    0.53732   0.54059   0.54344   0.54433   0.54597
 Alpha virt. eigenvalues --    0.54720   0.55582   0.56102   0.56301   0.56500
 Alpha virt. eigenvalues --    0.56725   0.57192   0.57256   0.57422   0.57762
 Alpha virt. eigenvalues --    0.58704   0.58834   0.59090   0.59509   0.59932
 Alpha virt. eigenvalues --    0.60301   0.60787   0.61067   0.61466   0.61977
 Alpha virt. eigenvalues --    0.62168   0.62851   0.63861   0.64388   0.64854
 Alpha virt. eigenvalues --    0.65197   0.66517   0.66729   0.66769   0.67110
 Alpha virt. eigenvalues --    0.68294   0.68474   0.68828   0.69120   0.69768
 Alpha virt. eigenvalues --    0.70157   0.70501   0.71223   0.71631   0.71975
 Alpha virt. eigenvalues --    0.72321   0.72736   0.73031   0.73049   0.73354
 Alpha virt. eigenvalues --    0.73456   0.73692   0.73767   0.73898   0.74081
 Alpha virt. eigenvalues --    0.74391   0.74430   0.75209   0.75700   0.75850
 Alpha virt. eigenvalues --    0.76303   0.76985   0.77397   0.77956   0.78497
 Alpha virt. eigenvalues --    0.79150   0.79728   0.80261   0.80663   0.80958
 Alpha virt. eigenvalues --    0.81068   0.81178   0.82156   0.82335   0.82729
 Alpha virt. eigenvalues --    0.83156   0.83527   0.84165   0.84346   0.84530
 Alpha virt. eigenvalues --    0.84851   0.85398   0.85794   0.86696   0.87529
 Alpha virt. eigenvalues --    0.88066   0.88792   0.89456   0.89978   0.90309
 Alpha virt. eigenvalues --    0.90586   0.90740   0.91333   0.91917   0.92062
 Alpha virt. eigenvalues --    0.92154   0.92614   0.93027   0.93069   0.93442
 Alpha virt. eigenvalues --    0.93505   0.93657   0.93769   0.94192   0.94815
 Alpha virt. eigenvalues --    0.95256   0.95612   0.96113   0.96875   0.97295
 Alpha virt. eigenvalues --    0.97460   0.97546   0.97885   0.98550   0.99328
 Alpha virt. eigenvalues --    0.99477   0.99738   0.99851   1.00155   1.00503
 Alpha virt. eigenvalues --    1.00679   1.00856   1.01095   1.01202   1.01282
 Alpha virt. eigenvalues --    1.01328   1.01469   1.01993   1.02454   1.02894
 Alpha virt. eigenvalues --    1.02984   1.03492   1.03539   1.03704   1.04014
 Alpha virt. eigenvalues --    1.04454   1.04743   1.04902   1.04993   1.05518
 Alpha virt. eigenvalues --    1.05746   1.05825   1.05972   1.06364   1.06761
 Alpha virt. eigenvalues --    1.07242   1.07289   1.07478   1.07531   1.07731
 Alpha virt. eigenvalues --    1.07922   1.08246   1.08404   1.08657   1.08944
 Alpha virt. eigenvalues --    1.09090   1.09375   1.09567   1.10457   1.11125
 Alpha virt. eigenvalues --    1.11240   1.11660   1.11946   1.12198   1.12418
 Alpha virt. eigenvalues --    1.12533   1.12955   1.13116   1.13250   1.13467
 Alpha virt. eigenvalues --    1.13520   1.13668   1.13880   1.14390   1.14819
 Alpha virt. eigenvalues --    1.15130   1.15336   1.15525   1.15758   1.16254
 Alpha virt. eigenvalues --    1.17017   1.17659   1.18137   1.18374   1.18636
 Alpha virt. eigenvalues --    1.18923   1.19750   1.19851   1.20122   1.20533
 Alpha virt. eigenvalues --    1.21009   1.22471   1.22712   1.22920   1.23031
 Alpha virt. eigenvalues --    1.23241   1.23451   1.23782   1.24332   1.24640
 Alpha virt. eigenvalues --    1.25522   1.25936   1.27147   1.27717   1.27975
 Alpha virt. eigenvalues --    1.28380   1.28986   1.29503   1.30062   1.30338
 Alpha virt. eigenvalues --    1.30468   1.30868   1.30936   1.31122   1.31731
 Alpha virt. eigenvalues --    1.31898   1.31986   1.32202   1.32445   1.32604
 Alpha virt. eigenvalues --    1.32779   1.32824   1.33189   1.33467   1.34219
 Alpha virt. eigenvalues --    1.35020   1.35231   1.35589   1.35697   1.35927
 Alpha virt. eigenvalues --    1.36087   1.36478   1.36650   1.36867   1.36957
 Alpha virt. eigenvalues --    1.37148   1.37356   1.38049   1.38148   1.38427
 Alpha virt. eigenvalues --    1.38585   1.38742   1.39037   1.39104   1.39159
 Alpha virt. eigenvalues --    1.39553   1.39705   1.39808   1.40056   1.40131
 Alpha virt. eigenvalues --    1.40305   1.40455   1.40859   1.41178   1.41287
 Alpha virt. eigenvalues --    1.41371   1.41428   1.41924   1.42063   1.42089
 Alpha virt. eigenvalues --    1.42412   1.42726   1.42840   1.42873   1.43356
 Alpha virt. eigenvalues --    1.43473   1.43602   1.43879   1.43978   1.44491
 Alpha virt. eigenvalues --    1.44757   1.45180   1.45404   1.45518   1.45649
 Alpha virt. eigenvalues --    1.46137   1.46207   1.46621   1.47033   1.47811
 Alpha virt. eigenvalues --    1.48298   1.48391   1.49578   1.49779   1.49853
 Alpha virt. eigenvalues --    1.50355   1.50975   1.51848   1.52517   1.52552
 Alpha virt. eigenvalues --    1.52800   1.53045   1.53463   1.53799   1.55289
 Alpha virt. eigenvalues --    1.55404   1.57628   1.58036   1.58154   1.58310
 Alpha virt. eigenvalues --    1.58611   1.58958   1.59291   1.59763   1.60230
 Alpha virt. eigenvalues --    1.61040   1.61289   1.61818   1.62035   1.62424
 Alpha virt. eigenvalues --    1.62608   1.62810   1.63354   1.63657   1.64510
 Alpha virt. eigenvalues --    1.65175   1.65254   1.65373   1.65963   1.66197
 Alpha virt. eigenvalues --    1.66518   1.67029   1.68386   1.68897   1.70056
 Alpha virt. eigenvalues --    1.70674   1.71060   1.71714   1.72817   1.73196
 Alpha virt. eigenvalues --    1.73483   1.73577   1.74277   1.74715   1.75238
 Alpha virt. eigenvalues --    1.75955   1.76658   1.77860   1.77933   1.78325
 Alpha virt. eigenvalues --    1.78685   1.79025   1.79311   1.79700   1.79920
 Alpha virt. eigenvalues --    1.80403   1.81254   1.81411   1.81809   1.82105
 Alpha virt. eigenvalues --    1.82640   1.82950   1.83954   1.84306   1.84382
 Alpha virt. eigenvalues --    1.84839   1.85367   1.85400   1.85983   1.86394
 Alpha virt. eigenvalues --    1.86563   1.87126   1.87186   1.87682   1.87949
 Alpha virt. eigenvalues --    1.88768   1.89021   1.89340   1.89363   1.89548
 Alpha virt. eigenvalues --    1.90284   1.90614   1.91534   1.92063   1.92490
 Alpha virt. eigenvalues --    1.93020   1.93377   1.93667   1.93962   1.94702
 Alpha virt. eigenvalues --    1.96702   1.97012   1.97494   1.97711   1.98478
 Alpha virt. eigenvalues --    1.98549   2.01666   2.01828   2.01875   2.04170
 Alpha virt. eigenvalues --    2.05239   2.06755   2.07392   2.08463   2.09098
 Alpha virt. eigenvalues --    2.10904   2.11237   2.11794   2.12241   2.12833
 Alpha virt. eigenvalues --    2.13713   2.14661   2.14836   2.15359   2.17674
 Alpha virt. eigenvalues --    2.18215   2.18750   2.19726   2.20042   2.20579
 Alpha virt. eigenvalues --    2.20962   2.21468   2.21976   2.24852   2.26580
 Alpha virt. eigenvalues --    2.26860   2.27283   2.27886   2.28931   2.29605
 Alpha virt. eigenvalues --    2.30460   2.31256   2.32097   2.32436   2.32789
 Alpha virt. eigenvalues --    2.32844   2.33852   2.34370   2.34787   2.34933
 Alpha virt. eigenvalues --    2.35177   2.39296   2.40046   2.42134   2.42878
 Alpha virt. eigenvalues --    2.43466   2.48610   2.49661   2.55242   2.65988
 Alpha virt. eigenvalues --    2.67105   2.67189   2.67209   2.67323   2.68307
 Alpha virt. eigenvalues --    2.68561   2.69151   2.69218   2.69320   2.69551
 Alpha virt. eigenvalues --    2.69605   2.69729   2.69824   2.69896   2.70029
 Alpha virt. eigenvalues --    2.70063   2.70130   2.70670   2.70720   2.70770
 Alpha virt. eigenvalues --    2.70844   2.70885   2.71183   2.71425   2.71593
 Alpha virt. eigenvalues --    2.71621   2.71944   2.72720   2.72791   2.72933
 Alpha virt. eigenvalues --    2.73312   2.73336   2.73484   2.73610   2.73752
 Alpha virt. eigenvalues --    2.74193   2.74233   2.74246   2.74290   2.75286
 Alpha virt. eigenvalues --    2.75383   2.75457   2.75601   2.75628   2.75681
 Alpha virt. eigenvalues --    2.75720   2.75773   2.75880   2.76001   2.76092
 Alpha virt. eigenvalues --    2.76174   2.76330   2.76388   2.76807   2.77242
 Alpha virt. eigenvalues --    2.77263   2.77699   2.78060   2.78277   2.78381
 Alpha virt. eigenvalues --    2.78476   2.78904   2.79344   2.79438   2.79594
 Alpha virt. eigenvalues --    2.79700   2.79910   2.80302   2.80529   2.81147
 Alpha virt. eigenvalues --    2.82148   2.82389   2.82543   2.82621   2.82681
 Alpha virt. eigenvalues --    2.82898   2.83080   2.83553   2.83973   2.84953
 Alpha virt. eigenvalues --    2.85053   2.85388   2.85585   2.85816   2.85885
 Alpha virt. eigenvalues --    2.85994   2.86138   2.86477   2.87635   2.87936
 Alpha virt. eigenvalues --    2.88092   2.88624   2.88776   2.88868   2.89011
 Alpha virt. eigenvalues --    2.89134   2.89780   2.89938   2.89943   2.90003
 Alpha virt. eigenvalues --    2.91156   2.91363   2.92319   2.92379   2.92520
 Alpha virt. eigenvalues --    2.92744   2.92828   2.92936   2.93286   2.93340
 Alpha virt. eigenvalues --    2.93856   2.94144   2.94557   2.94730   2.94928
 Alpha virt. eigenvalues --    2.95164   2.95351   2.95430   2.95565   2.96108
 Alpha virt. eigenvalues --    2.96176   2.96400   2.96429   2.96550   2.96695
 Alpha virt. eigenvalues --    2.96831   2.96852   2.97004   2.97139   2.97313
 Alpha virt. eigenvalues --    2.97400   2.98213   2.98331   2.98643   2.99351
 Alpha virt. eigenvalues --    2.99411   2.99666   2.99724   3.00049   3.00096
 Alpha virt. eigenvalues --    3.00238   3.00455   3.00790   3.00990   3.01087
 Alpha virt. eigenvalues --    3.01688   3.01819   3.02050   3.02597   3.02785
 Alpha virt. eigenvalues --    3.02941   3.03170   3.03579   3.04384   3.07426
 Alpha virt. eigenvalues --    3.08948   3.09168   3.09265   3.09704   3.10355
 Alpha virt. eigenvalues --    3.11147   3.11615   3.11858   3.11997   3.14641
 Alpha virt. eigenvalues --    3.14766   3.14887   3.15305   3.15627   3.15801
 Alpha virt. eigenvalues --    3.17203   3.17318   3.17484   3.22465   3.28395
 Alpha virt. eigenvalues --    3.29360   3.29594   3.30619   3.42364   3.42983
 Alpha virt. eigenvalues --    3.43874   3.44099   3.46330   3.46495   3.46600
 Alpha virt. eigenvalues --    3.47319   3.47711   3.47814   3.48832   3.48950
 Alpha virt. eigenvalues --    3.49400   3.53072   3.53542   3.54132   3.55315
 Alpha virt. eigenvalues --    3.55439   3.56145   3.56476   3.56682   3.56795
 Alpha virt. eigenvalues --    3.56936   3.57137   3.57369   3.58370   3.59237
 Alpha virt. eigenvalues --    3.59619   3.60748   3.61051   3.61486   3.62097
 Alpha virt. eigenvalues --    3.62234   3.62908   3.63424   3.63818   3.64406
 Alpha virt. eigenvalues --    3.73413   3.78237  68.66778  68.67719  68.69020
 Alpha virt. eigenvalues --   68.71388  68.75014  68.75974  68.83716  68.84761
 Alpha virt. eigenvalues --   68.85304  68.88188  68.89227  68.90521 576.25224
 Alpha virt. eigenvalues --  576.26145 576.27420 576.29734 576.33379 576.34312
 Alpha virt. eigenvalues --  576.41912 576.42943 576.43463 576.46248 576.47269
 Alpha virt. eigenvalues --  576.48547
  Beta  occ. eigenvalues -- -197.09159-129.98958-129.98946-129.98905-101.61870
  Beta  occ. eigenvalues --  -22.41701 -19.28427 -19.28411 -19.28376 -19.28364
  Beta  occ. eigenvalues --  -19.28340 -19.28324 -19.28319 -19.28304 -19.28285
  Beta  occ. eigenvalues --  -19.28269 -19.28150 -19.28092 -19.26962 -19.26885
  Beta  occ. eigenvalues --  -19.26882 -19.26860 -19.26857 -19.26844 -19.26836
  Beta  occ. eigenvalues --  -19.26833 -19.26824 -19.26823 -19.26803 -19.26795
  Beta  occ. eigenvalues --  -19.26792 -19.26787 -19.26785 -19.26772 -19.26770
  Beta  occ. eigenvalues --  -19.26751 -19.26721 -19.26712 -19.26682 -19.26668
  Beta  occ. eigenvalues --  -19.26619 -19.26586 -19.23969 -19.23919 -19.23900
  Beta  occ. eigenvalues --  -19.23869 -18.92179 -18.90003 -18.89905 -13.36361
  Beta  occ. eigenvalues --  -13.36349 -13.36296 -10.69289 -10.69284 -10.69283
  Beta  occ. eigenvalues --  -10.69278 -10.69272 -10.69272 -10.69226 -10.69220
  Beta  occ. eigenvalues --  -10.69218 -10.33192 -10.32606 -10.31663 -10.30957
  Beta  occ. eigenvalues --  -10.30944 -10.30860 -10.30426 -10.30302  -9.52321
  Beta  occ. eigenvalues --   -7.28126  -7.26742  -7.26731  -3.21024  -3.20998
  Beta  occ. eigenvalues --   -3.20991  -3.20974  -3.20962  -3.20946  -3.20934
  Beta  occ. eigenvalues --   -3.20923  -3.20903  -3.20836  -3.20799  -3.20773
  Beta  occ. eigenvalues --   -2.73575  -1.85261  -1.85201  -1.85181  -1.85143
  Beta  occ. eigenvalues --   -1.85047  -1.85014  -1.84986  -1.84974  -1.84940
  Beta  occ. eigenvalues --   -1.84928  -1.84897  -1.84850  -1.84340  -1.84230
  Beta  occ. eigenvalues --   -1.84215  -1.84203  -1.84167  -1.84156  -1.84105
  Beta  occ. eigenvalues --   -1.84077  -1.84054  -1.84047  -1.84017  -1.84008
  Beta  occ. eigenvalues --   -1.83899  -1.83871  -1.83850  -1.83841  -1.83830
  Beta  occ. eigenvalues --   -1.83779  -1.83768  -1.83752  -1.83744  -1.83664
  Beta  occ. eigenvalues --   -1.83657  -1.83635  -1.79552  -1.74932  -1.74719
  Beta  occ. eigenvalues --   -1.50078  -1.50066  -1.50015  -1.08553  -1.06934
  Beta  occ. eigenvalues --   -1.06897  -1.06852  -1.06009  -1.05995  -1.05960
  Beta  occ. eigenvalues --   -1.04579  -1.04565  -1.04557  -1.03965  -1.03938
  Beta  occ. eigenvalues --   -1.03259  -1.03231  -1.03187  -1.03152  -1.03055
  Beta  occ. eigenvalues --   -1.03019  -1.02131  -1.02100  -1.02077  -1.02028
  Beta  occ. eigenvalues --   -1.01992  -1.01972  -1.01921  -1.01866  -1.01765
  Beta  occ. eigenvalues --   -1.01742  -1.01722  -1.01627  -1.01506  -1.01482
  Beta  occ. eigenvalues --   -1.01311  -1.00788  -1.00750  -1.00727  -1.00524
  Beta  occ. eigenvalues --   -0.99383  -0.99289  -0.99242  -0.96307  -0.90109
  Beta  occ. eigenvalues --   -0.85548  -0.85532  -0.85494  -0.85370  -0.85366
  Beta  occ. eigenvalues --   -0.85358  -0.85354  -0.85312  -0.85297  -0.84260
  Beta  occ. eigenvalues --   -0.83958  -0.82702  -0.72130  -0.69636  -0.65266
  Beta  occ. eigenvalues --   -0.62364  -0.61718  -0.61677  -0.61631  -0.60801
  Beta  occ. eigenvalues --   -0.59043  -0.59027  -0.59015  -0.58821  -0.58800
  Beta  occ. eigenvalues --   -0.58781  -0.58752  -0.58705  -0.58555  -0.57163
  Beta  occ. eigenvalues --   -0.57045  -0.56979  -0.56944  -0.56809  -0.56377
  Beta  occ. eigenvalues --   -0.56331  -0.56283  -0.55614  -0.55430  -0.55285
  Beta  occ. eigenvalues --   -0.55265  -0.55250  -0.54576  -0.54150  -0.54088
  Beta  occ. eigenvalues --   -0.53935  -0.53543  -0.53487  -0.53443  -0.52776
  Beta  occ. eigenvalues --   -0.52612  -0.52604  -0.52517  -0.52480  -0.51491
  Beta  occ. eigenvalues --   -0.51479  -0.51469  -0.51415  -0.51337  -0.50925
  Beta  occ. eigenvalues --   -0.50431  -0.50403  -0.50376  -0.50294  -0.50242
  Beta  occ. eigenvalues --   -0.50133  -0.50083  -0.50047  -0.49976  -0.49742
  Beta  occ. eigenvalues --   -0.49693  -0.49654  -0.49341  -0.49303  -0.49149
  Beta  occ. eigenvalues --   -0.49109  -0.49079  -0.48993  -0.48968  -0.48903
  Beta  occ. eigenvalues --   -0.48792  -0.48637  -0.48614  -0.48511  -0.47806
  Beta  occ. eigenvalues --   -0.47664  -0.47567  -0.45902  -0.45759  -0.45721
  Beta  occ. eigenvalues --   -0.45635  -0.45565  -0.45437  -0.45171  -0.45133
  Beta  occ. eigenvalues --   -0.45121  -0.44948  -0.44809  -0.44593  -0.44372
  Beta  occ. eigenvalues --   -0.44341  -0.44327  -0.44104  -0.44081  -0.44041
  Beta  occ. eigenvalues --   -0.43189  -0.43125  -0.42436  -0.42320  -0.42294
  Beta  occ. eigenvalues --   -0.42167  -0.42101  -0.41993  -0.41989  -0.41604
  Beta  occ. eigenvalues --   -0.41565  -0.41491  -0.41394  -0.40998  -0.40895
  Beta  occ. eigenvalues --   -0.40683  -0.40655  -0.40638  -0.40344  -0.40319
  Beta  occ. eigenvalues --   -0.40289  -0.40168  -0.40157  -0.40113  -0.39783
  Beta  occ. eigenvalues --   -0.39503  -0.39231  -0.39093  -0.39021  -0.38982
  Beta  occ. eigenvalues --   -0.38769  -0.38701  -0.38659  -0.38428  -0.38401
  Beta  occ. eigenvalues --   -0.38310  -0.38251  -0.38204  -0.38123  -0.37190
  Beta  occ. eigenvalues --   -0.37135  -0.36926  -0.35173  -0.35138  -0.33759
  Beta  occ. eigenvalues --   -0.30565
  Beta virt. eigenvalues --   -0.06238  -0.06195  -0.04733  -0.04688  -0.04586
  Beta virt. eigenvalues --   -0.01354  -0.01279  -0.01238  -0.01015  -0.00803
  Beta virt. eigenvalues --   -0.00788  -0.00716  -0.00087   0.00019   0.00049
  Beta virt. eigenvalues --    0.00798   0.00830   0.00884   0.01018   0.01168
  Beta virt. eigenvalues --    0.01651   0.01994   0.02003   0.02019   0.02518
  Beta virt. eigenvalues --    0.02812   0.02888   0.03457   0.03687   0.03929
  Beta virt. eigenvalues --    0.04052   0.04219   0.04461   0.04474   0.04523
  Beta virt. eigenvalues --    0.04543   0.04573   0.04761   0.05144   0.05240
  Beta virt. eigenvalues --    0.05720   0.06587   0.08184   0.08514   0.08668
  Beta virt. eigenvalues --    0.08689   0.08765   0.09511   0.09777   0.09822
  Beta virt. eigenvalues --    0.09917   0.09934   0.10056   0.10152   0.10336
  Beta virt. eigenvalues --    0.10618   0.10754   0.10976   0.11012   0.11281
  Beta virt. eigenvalues --    0.11572   0.11664   0.11723   0.12021   0.12215
  Beta virt. eigenvalues --    0.12418   0.12477   0.12538   0.12559   0.13347
  Beta virt. eigenvalues --    0.13502   0.13695   0.14016   0.14284   0.15026
  Beta virt. eigenvalues --    0.15122   0.15296   0.15314   0.15420   0.15856
  Beta virt. eigenvalues --    0.16153   0.16750   0.17151   0.17758   0.17880
  Beta virt. eigenvalues --    0.18280   0.18469   0.18648   0.18785   0.19075
  Beta virt. eigenvalues --    0.19360   0.19444   0.19555   0.19615   0.19671
  Beta virt. eigenvalues --    0.20035   0.20074   0.20404   0.20706   0.20937
  Beta virt. eigenvalues --    0.21123   0.21290   0.21383   0.21539   0.21622
  Beta virt. eigenvalues --    0.21674   0.21950   0.21993   0.22145   0.22357
  Beta virt. eigenvalues --    0.22401   0.22808   0.23148   0.23288   0.23359
  Beta virt. eigenvalues --    0.23450   0.23622   0.23819   0.24061   0.24294
  Beta virt. eigenvalues --    0.24576   0.24746   0.24807   0.25065   0.25252
  Beta virt. eigenvalues --    0.25540   0.25628   0.25680   0.26246   0.26845
  Beta virt. eigenvalues --    0.26880   0.27238   0.27397   0.27682   0.27967
  Beta virt. eigenvalues --    0.28048   0.28407   0.28775   0.28887   0.29127
  Beta virt. eigenvalues --    0.29431   0.29448   0.29500   0.29648   0.29747
  Beta virt. eigenvalues --    0.30377   0.30681   0.31219   0.31424   0.31711
  Beta virt. eigenvalues --    0.31827   0.32463   0.32612   0.32830   0.33459
  Beta virt. eigenvalues --    0.33773   0.34549   0.35436   0.36861   0.37089
  Beta virt. eigenvalues --    0.38164   0.39022   0.39128   0.39453   0.39708
  Beta virt. eigenvalues --    0.40389   0.41453   0.42049   0.42181   0.42314
  Beta virt. eigenvalues --    0.42440   0.42653   0.42925   0.43473   0.44307
  Beta virt. eigenvalues --    0.44435   0.44641   0.45063   0.45454   0.45639
  Beta virt. eigenvalues --    0.45880   0.46022   0.46062   0.46506   0.46618
  Beta virt. eigenvalues --    0.46990   0.47156   0.47678   0.47944   0.48277
  Beta virt. eigenvalues --    0.48422   0.48466   0.48722   0.48975   0.49048
  Beta virt. eigenvalues --    0.49300   0.49800   0.49948   0.49989   0.50089
  Beta virt. eigenvalues --    0.50147   0.50301   0.50484   0.50595   0.50832
  Beta virt. eigenvalues --    0.51209   0.51307   0.51614   0.51714   0.52089
  Beta virt. eigenvalues --    0.52535   0.52777   0.52850   0.53105   0.53408
  Beta virt. eigenvalues --    0.53715   0.54031   0.54338   0.54393   0.54598
  Beta virt. eigenvalues --    0.54698   0.55537   0.56107   0.56343   0.56514
  Beta virt. eigenvalues --    0.56719   0.57210   0.57252   0.57359   0.57746
  Beta virt. eigenvalues --    0.58622   0.58845   0.59064   0.59506   0.59748
  Beta virt. eigenvalues --    0.60226   0.60778   0.60900   0.61379   0.61968
  Beta virt. eigenvalues --    0.62172   0.62774   0.63739   0.64552   0.64806
  Beta virt. eigenvalues --    0.65207   0.66416   0.66720   0.66763   0.66946
  Beta virt. eigenvalues --    0.68250   0.68427   0.68504   0.69065   0.69217
  Beta virt. eigenvalues --    0.70184   0.70598   0.70707   0.71650   0.71965
  Beta virt. eigenvalues --    0.72241   0.72716   0.72927   0.72976   0.73311
  Beta virt. eigenvalues --    0.73465   0.73645   0.73740   0.73808   0.73964
  Beta virt. eigenvalues --    0.74259   0.74396   0.74880   0.75597   0.75618
  Beta virt. eigenvalues --    0.76290   0.76984   0.77438   0.77827   0.78356
  Beta virt. eigenvalues --    0.79178   0.79636   0.80297   0.80738   0.81035
  Beta virt. eigenvalues --    0.81156   0.81692   0.82145   0.82374   0.82699
  Beta virt. eigenvalues --    0.83146   0.83464   0.84141   0.84356   0.84400
  Beta virt. eigenvalues --    0.84859   0.85397   0.85804   0.86703   0.87496
  Beta virt. eigenvalues --    0.87811   0.88568   0.88975   0.89891   0.90126
  Beta virt. eigenvalues --    0.90423   0.90589   0.90899   0.91114   0.91594
  Beta virt. eigenvalues --    0.91714   0.92167   0.92312   0.92620   0.92832
  Beta virt. eigenvalues --    0.92975   0.93091   0.93610   0.93745   0.94083
  Beta virt. eigenvalues --    0.95263   0.95589   0.96055   0.96305   0.97058
  Beta virt. eigenvalues --    0.97493   0.97608   0.98070   0.98378   0.99048
  Beta virt. eigenvalues --    0.99470   0.99730   0.99893   1.00157   1.00454
  Beta virt. eigenvalues --    1.00517   1.00796   1.00870   1.01165   1.01316
  Beta virt. eigenvalues --    1.01347   1.01463   1.02030   1.02466   1.02878
  Beta virt. eigenvalues --    1.02991   1.03330   1.03550   1.03706   1.04018
  Beta virt. eigenvalues --    1.04467   1.04704   1.04869   1.04980   1.05442
  Beta virt. eigenvalues --    1.05554   1.05787   1.05924   1.06312   1.06798
  Beta virt. eigenvalues --    1.07321   1.07341   1.07528   1.07619   1.07779
  Beta virt. eigenvalues --    1.07953   1.08271   1.08568   1.08930   1.08992
  Beta virt. eigenvalues --    1.09130   1.09448   1.09655   1.10469   1.11130
  Beta virt. eigenvalues --    1.11245   1.11663   1.11951   1.12205   1.12430
  Beta virt. eigenvalues --    1.12534   1.12962   1.13120   1.13256   1.13450
  Beta virt. eigenvalues --    1.13533   1.13680   1.13888   1.14402   1.14974
  Beta virt. eigenvalues --    1.15129   1.15371   1.15539   1.15737   1.16227
  Beta virt. eigenvalues --    1.16949   1.17645   1.18078   1.18251   1.18653
  Beta virt. eigenvalues --    1.18986   1.19776   1.19930   1.20105   1.20586
  Beta virt. eigenvalues --    1.21024   1.22247   1.22578   1.22882   1.22929
  Beta virt. eigenvalues --    1.23135   1.23434   1.23797   1.24074   1.24522
  Beta virt. eigenvalues --    1.24992   1.25603   1.27137   1.27690   1.27921
  Beta virt. eigenvalues --    1.28382   1.28977   1.29312   1.30031   1.30328
  Beta virt. eigenvalues --    1.30439   1.30895   1.30942   1.31126   1.31777
  Beta virt. eigenvalues --    1.31887   1.32003   1.32160   1.32389   1.32622
  Beta virt. eigenvalues --    1.32769   1.32844   1.33191   1.33458   1.34095
  Beta virt. eigenvalues --    1.35031   1.35211   1.35589   1.35676   1.35921
  Beta virt. eigenvalues --    1.36060   1.36475   1.36605   1.36798   1.36931
  Beta virt. eigenvalues --    1.37117   1.37246   1.38034   1.38151   1.38442
  Beta virt. eigenvalues --    1.38580   1.38747   1.39041   1.39061   1.39130
  Beta virt. eigenvalues --    1.39536   1.39723   1.39795   1.40056   1.40127
  Beta virt. eigenvalues --    1.40293   1.40452   1.40877   1.41162   1.41301
  Beta virt. eigenvalues --    1.41398   1.41440   1.41932   1.42017   1.42084
  Beta virt. eigenvalues --    1.42415   1.42729   1.42851   1.42875   1.43359
  Beta virt. eigenvalues --    1.43458   1.43583   1.43893   1.43996   1.44511
  Beta virt. eigenvalues --    1.44757   1.45152   1.45343   1.45532   1.45654
  Beta virt. eigenvalues --    1.46063   1.46130   1.46564   1.47100   1.47831
  Beta virt. eigenvalues --    1.48271   1.48394   1.49587   1.49782   1.49860
  Beta virt. eigenvalues --    1.50358   1.50975   1.51862   1.52522   1.52563
  Beta virt. eigenvalues --    1.52796   1.53060   1.53483   1.53823   1.55311
  Beta virt. eigenvalues --    1.55413   1.57632   1.58046   1.58176   1.58337
  Beta virt. eigenvalues --    1.58644   1.58971   1.59304   1.59804   1.60245
  Beta virt. eigenvalues --    1.61067   1.61312   1.61824   1.62047   1.62431
  Beta virt. eigenvalues --    1.62620   1.62798   1.63361   1.63648   1.64562
  Beta virt. eigenvalues --    1.65299   1.65352   1.65531   1.66098   1.66238
  Beta virt. eigenvalues --    1.66579   1.67120   1.68556   1.68963   1.70120
  Beta virt. eigenvalues --    1.70709   1.71091   1.71695   1.72650   1.73185
  Beta virt. eigenvalues --    1.73441   1.73594   1.74274   1.74752   1.75212
  Beta virt. eigenvalues --    1.75904   1.76594   1.77774   1.77918   1.78252
  Beta virt. eigenvalues --    1.78646   1.78908   1.79311   1.79680   1.79866
  Beta virt. eigenvalues --    1.80394   1.81239   1.81412   1.81786   1.82093
  Beta virt. eigenvalues --    1.82644   1.82874   1.83891   1.84287   1.84411
  Beta virt. eigenvalues --    1.84838   1.85339   1.85360   1.85976   1.86411
  Beta virt. eigenvalues --    1.86546   1.87167   1.87208   1.87682   1.87951
  Beta virt. eigenvalues --    1.88655   1.89044   1.89203   1.89328   1.89549
  Beta virt. eigenvalues --    1.90277   1.90654   1.91468   1.92002   1.92489
  Beta virt. eigenvalues --    1.93061   1.93380   1.93668   1.93918   1.94710
  Beta virt. eigenvalues --    1.96738   1.96912   1.97532   1.97723   1.98529
  Beta virt. eigenvalues --    1.98594   2.01747   2.01906   2.01948   2.03942
  Beta virt. eigenvalues --    2.05109   2.06513   2.07300   2.08412   2.08722
  Beta virt. eigenvalues --    2.10899   2.11201   2.11581   2.11919   2.12744
  Beta virt. eigenvalues --    2.13713   2.14683   2.14847   2.15381   2.17722
  Beta virt. eigenvalues --    2.18246   2.18522   2.19633   2.19885   2.20535
  Beta virt. eigenvalues --    2.21156   2.21580   2.22130   2.24793   2.26703
  Beta virt. eigenvalues --    2.27033   2.27578   2.28043   2.29620   2.29735
  Beta virt. eigenvalues --    2.30795   2.31568   2.31958   2.32624   2.32875
  Beta virt. eigenvalues --    2.33599   2.34490   2.34549   2.35268   2.36210
  Beta virt. eigenvalues --    2.36729   2.39007   2.39893   2.42032   2.42757
  Beta virt. eigenvalues --    2.43548   2.47938   2.49413   2.54552   2.65713
  Beta virt. eigenvalues --    2.66681   2.67188   2.67208   2.67316   2.68299
  Beta virt. eigenvalues --    2.68472   2.69151   2.69217   2.69311   2.69551
  Beta virt. eigenvalues --    2.69606   2.69731   2.69827   2.69899   2.70040
  Beta virt. eigenvalues --    2.70080   2.70139   2.70659   2.70742   2.70783
  Beta virt. eigenvalues --    2.70858   2.70900   2.71137   2.71390   2.71548
  Beta virt. eigenvalues --    2.71623   2.71938   2.72722   2.72793   2.72937
  Beta virt. eigenvalues --    2.73335   2.73355   2.73486   2.73610   2.73747
  Beta virt. eigenvalues --    2.73987   2.74204   2.74243   2.74294   2.75291
  Beta virt. eigenvalues --    2.75390   2.75465   2.75608   2.75637   2.75690
  Beta virt. eigenvalues --    2.75733   2.75781   2.75883   2.76008   2.76098
  Beta virt. eigenvalues --    2.76181   2.76334   2.76394   2.76806   2.77259
  Beta virt. eigenvalues --    2.77284   2.77729   2.78083   2.78286   2.78401
  Beta virt. eigenvalues --    2.78494   2.78912   2.79366   2.79456   2.79622
  Beta virt. eigenvalues --    2.79746   2.79965   2.80213   2.80425   2.81149
  Beta virt. eigenvalues --    2.82193   2.82420   2.82587   2.82654   2.82694
  Beta virt. eigenvalues --    2.82929   2.83090   2.83541   2.83953   2.84967
  Beta virt. eigenvalues --    2.85068   2.85409   2.85585   2.85720   2.85832
  Beta virt. eigenvalues --    2.85947   2.86143   2.86483   2.87664   2.87967
  Beta virt. eigenvalues --    2.88122   2.88630   2.88780   2.88872   2.89011
  Beta virt. eigenvalues --    2.89137   2.89793   2.89937   2.89970   2.90017
  Beta virt. eigenvalues --    2.91174   2.91386   2.92328   2.92387   2.92528
  Beta virt. eigenvalues --    2.92752   2.92845   2.92943   2.93315   2.93370
  Beta virt. eigenvalues --    2.93870   2.94138   2.94569   2.94644   2.94900
  Beta virt. eigenvalues --    2.95161   2.95367   2.95441   2.95537   2.96115
  Beta virt. eigenvalues --    2.96183   2.96412   2.96462   2.96555   2.96705
  Beta virt. eigenvalues --    2.96835   2.96856   2.97020   2.97064   2.97322
  Beta virt. eigenvalues --    2.97403   2.98222   2.98335   2.98657   2.99347
  Beta virt. eigenvalues --    2.99422   2.99492   2.99701   3.00062   3.00127
  Beta virt. eigenvalues --    3.00258   3.00470   3.00842   3.01023   3.01126
  Beta virt. eigenvalues --    3.01710   3.01828   3.02061   3.02614   3.02816
  Beta virt. eigenvalues --    3.02955   3.03191   3.03597   3.04398   3.07429
  Beta virt. eigenvalues --    3.08759   3.09174   3.09276   3.09715   3.10666
  Beta virt. eigenvalues --    3.11194   3.12123   3.12356   3.12695   3.14655
  Beta virt. eigenvalues --    3.14780   3.14896   3.15187   3.15638   3.15820
  Beta virt. eigenvalues --    3.17232   3.17358   3.17581   3.22393   3.28939
  Beta virt. eigenvalues --    3.30459   3.30545   3.30778   3.42369   3.42990
  Beta virt. eigenvalues --    3.43876   3.44103   3.46260   3.46453   3.46509
  Beta virt. eigenvalues --    3.47324   3.47713   3.47816   3.48835   3.48952
  Beta virt. eigenvalues --    3.49403   3.53079   3.53561   3.54149   3.55321
  Beta virt. eigenvalues --    3.55451   3.56162   3.56484   3.56698   3.56820
  Beta virt. eigenvalues --    3.56962   3.57148   3.57392   3.58384   3.59240
  Beta virt. eigenvalues --    3.59623   3.60762   3.61058   3.61496   3.62099
  Beta virt. eigenvalues --    3.62237   3.62913   3.63425   3.63821   3.64411
  Beta virt. eigenvalues --    3.73348   3.78464  68.66779  68.67720  68.69021
  Beta virt. eigenvalues --   68.71390  68.75015  68.75976  68.83717  68.84762
  Beta virt. eigenvalues --   68.85306  68.88190  68.89228  68.90523 576.25255
  Beta virt. eigenvalues --  576.26170 576.27447 576.29761 576.33396 576.34354
  Beta virt. eigenvalues --  576.41946 576.42963 576.43497 576.46283 576.47290
  Beta virt. eigenvalues --  576.48581
          Condensed to atoms (all electrons):
          Atomic-Atomic Spin Densities.
 Mulliken charges and spin densities:
               1          2
     1  Cl  -0.374512  -0.585702
     2  C   -0.038830  -0.086732
     3  C    0.011452   0.057507
     4  C   -0.035423  -0.083962
     5  C   -0.031699   0.053584
     6  C    0.006271  -0.100953
     7  C   -0.048618   0.052387
     8  H    0.045986   0.003686
     9  H    0.048143   0.003608
    10  H    0.053917  -0.001910
    11  H    0.055882   0.004438
    12  H    0.052695  -0.001839
    13  C    0.006985  -0.243711
    14  C   -0.007829  -0.083013
    15  H    0.073970   0.010419
    16  H    0.094257   0.003744
    17  H    0.094631   0.003363
    18  O   -0.669980  -0.000522
    19  O   -0.668172  -0.000453
    20  O   -0.664268  -0.001916
    21  O   -0.670148  -0.000493
    22  W    1.719365   0.000351
    23  W    1.660995   0.000569
    24  W    1.674522   0.000247
    25  W    1.682398   0.000207
    26  W    1.657713   0.003097
    27  W    1.706713   0.002763
    28  W    1.608258   0.003675
    29  W    1.667365   0.003212
    30  O   -0.353614  -0.000540
    31  O   -0.398080  -0.000572
    32  O   -0.397249  -0.000621
    33  O   -0.396037  -0.000566
    34  O   -0.670021  -0.000318
    35  O   -0.676020  -0.000011
    36  O   -0.668628  -0.000127
    37  O   -0.671001  -0.000216
    38  O   -0.398294   0.002163
    39  O   -0.399295   0.002200
    40  O   -0.339869  -0.001886
    41  O   -0.398105   0.002179
    42  O   -0.675804   0.000060
    43  O   -0.669724   0.000176
    44  O   -0.666250   0.000340
    45  O   -0.671812   0.000101
    46  O   -0.398892   0.002363
    47  O   -0.354838   0.002244
    48  O   -0.389409   0.001809
    49  O   -0.397843   0.002426
    50  W    1.654316   0.003209
    51  W    1.658034   0.003085
    52  W    1.669026   0.004138
    53  W    1.664454   0.003054
    54  O   -0.719540   0.000168
    55  O   -0.702608   0.000042
    56  O   -0.719475   0.000232
    57  O   -0.717172   0.000122
    58  O   -0.699638  -0.000038
    59  O   -0.721186   0.000192
    60  O   -0.719884   0.000272
    61  O   -0.717374   0.000267
    62  O   -0.720313  -0.000171
    63  O   -0.704269   0.000028
    64  O   -0.720472  -0.000189
    65  O   -0.723003  -0.000198
    66  O   -0.879672   0.005961
    67  O   -0.879311   0.008276
    68  O   -0.877781   0.008185
    69  O   -0.887097   0.007431
    70  K    0.845599   0.000246
    71  K    0.845130   0.000276
    72  K    0.840116   0.000302
    73  V    1.210864   0.928255
 Sum of Mulliken charges =  -1.00000   0.00000
 Mulliken charges and spin densities with hydrogens summed into heavy atoms:
               1          2
     1  Cl  -0.374512  -0.585702
     2  C    0.007156  -0.083046
     3  C    0.011452   0.057507
     4  C    0.012720  -0.080355
     5  C    0.022218   0.051673
     6  C    0.062152  -0.096516
     7  C    0.004076   0.050548
    13  C    0.080955  -0.233292
    14  C    0.181060  -0.075907
    18  O   -0.669980  -0.000522
    19  O   -0.668172  -0.000453
    20  O   -0.664268  -0.001916
    21  O   -0.670148  -0.000493
    22  W    1.719365   0.000351
    23  W    1.660995   0.000569
    24  W    1.674522   0.000247
    25  W    1.682398   0.000207
    26  W    1.657713   0.003097
    27  W    1.706713   0.002763
    28  W    1.608258   0.003675
    29  W    1.667365   0.003212
    30  O   -0.353614  -0.000540
    31  O   -0.398080  -0.000572
    32  O   -0.397249  -0.000621
    33  O   -0.396037  -0.000566
    34  O   -0.670021  -0.000318
    35  O   -0.676020  -0.000011
    36  O   -0.668628  -0.000127
    37  O   -0.671001  -0.000216
    38  O   -0.398294   0.002163
    39  O   -0.399295   0.002200
    40  O   -0.339869  -0.001886
    41  O   -0.398105   0.002179
    42  O   -0.675804   0.000060
    43  O   -0.669724   0.000176
    44  O   -0.666250   0.000340
    45  O   -0.671812   0.000101
    46  O   -0.398892   0.002363
    47  O   -0.354838   0.002244
    48  O   -0.389409   0.001809
    49  O   -0.397843   0.002426
    50  W    1.654316   0.003209
    51  W    1.658034   0.003085
    52  W    1.669026   0.004138
    53  W    1.664454   0.003054
    54  O   -0.719540   0.000168
    55  O   -0.702608   0.000042
    56  O   -0.719475   0.000232
    57  O   -0.717172   0.000122
    58  O   -0.699638  -0.000038
    59  O   -0.721186   0.000192
    60  O   -0.719884   0.000272
    61  O   -0.717374   0.000267
    62  O   -0.720313  -0.000171
    63  O   -0.704269   0.000028
    64  O   -0.720472  -0.000189
    65  O   -0.723003  -0.000198
    66  O   -0.879672   0.005961
    67  O   -0.879311   0.008276
    68  O   -0.877781   0.008185
    69  O   -0.887097   0.007431
    70  K    0.845599   0.000246
    71  K    0.845130   0.000276
    72  K    0.840116   0.000302
    73  V    1.210864   0.928255
 Electronic spatial extent (au):  <R**2>=         316433.7995
 Charge=             -1.0000 electrons
 Dipole moment (field-independent basis, Debye):
    X=             29.3974    Y=            -13.2246    Z=            -31.0690  Tot=             44.7703
 Quadrupole moment (field-independent basis, Debye-Ang):
   XX=           -784.1391   YY=           -698.3784   ZZ=           -790.4518
   XY=            128.4248   XZ=            190.7318   YZ=            -89.8180
 Traceless Quadrupole moment (field-independent basis, Debye-Ang):
   XX=            -26.4827   YY=             59.2781   ZZ=            -32.7954
   XY=            128.4248   XZ=            190.7318   YZ=            -89.8180
 Octapole moment (field-independent basis, Debye-Ang**2):
  XXX=          10514.2935  YYY=            969.6539  ZZZ=         -17578.1457  XYY=           4064.1282
  XXY=           -663.5192  XXZ=          -6316.5942  XZZ=           4250.9001  YZZ=            -98.0480
  YYZ=          -6944.1078  XYZ=           1405.6407
 Hexadecapole moment (field-independent basis, Debye-Ang**3):
 XXXX=        -129005.8459 YYYY=         -38432.9425 ZZZZ=        -328206.6423 XXXY=           8466.1527
 XXXZ=          90034.4944 YYYX=           2067.6031 YYYZ=           8421.2812 ZZZX=          92736.4142
 ZZZY=           8215.5130 XXYY=         -35536.6967 XXZZ=         -73088.6131 YYZZ=         -76915.1220
 XXYZ=         -10831.0154 YYXZ=          39913.4755 ZZXY=          14330.2714
 N-N= 2.105578929980D+04 E-N=-5.922174348895D+04  KE= 6.765965814519D+03
                          Isotropic Fermi Contact Couplings
        Atom                 a.u.       MegaHertz       Gauss      10(-4) cm-1
     1  Cl(35)            -0.10476     -22.96721      -8.19527      -7.66104
     2  C(13)             -0.01360      -7.64318      -2.72728      -2.54949
     3  C(13)              0.01842      10.35156       3.69369       3.45291
     4  C(13)             -0.01330      -7.47837      -2.66847      -2.49452
     5  C(13)              0.01200       6.74584       2.40708       2.25017
     6  C(13)             -0.01644      -9.23835      -3.29647      -3.08158
     7  C(13)              0.01179       6.62518       2.36403       2.20992
     8  H(1)               0.00118       2.63456       0.94008       0.87880
     9  H(1)               0.00117       2.61067       0.93155       0.87082
    10  H(1)              -0.00056      -1.25385      -0.44740      -0.41824
    11  H(1)               0.00135       3.00721       1.07305       1.00310
    12  H(1)              -0.00054      -1.21129      -0.43222      -0.40404
    13  C(13)             -0.03438     -19.32353      -6.89512      -6.44564
    14  C(13)             -0.02544     -14.30231      -5.10342      -4.77074
    15  H(1)               0.00336       7.51353       2.68101       2.50624
    16  H(1)               0.00136       3.04743       1.08740       1.01651
    17  H(1)               0.00126       2.81855       1.00573       0.94017
    18  O(17)             -0.00045       0.13575       0.04844       0.04528
    19  O(17)             -0.00039       0.11929       0.04256       0.03979
    20  O(17)             -0.00144       0.43606       0.15560       0.14545
    21  O(17)             -0.00043       0.12984       0.04633       0.04331
    22  W(183)             0.00000       0.00000       0.00000       0.00000
    23  W(183)             0.00000       0.00000       0.00000       0.00000
    24  W(183)             0.00000       0.00000       0.00000       0.00000
    25  W(183)             0.00000       0.00000       0.00000       0.00000
    26  W(183)             0.00000       0.00000       0.00000       0.00000
    27  W(183)             0.00000       0.00000       0.00000       0.00000
    28  W(183)             0.00000       0.00000       0.00000       0.00000
    29  W(183)             0.00000       0.00000       0.00000       0.00000
    30  O(17)             -0.00021       0.06324       0.02257       0.02110
    31  O(17)             -0.00025       0.07606       0.02714       0.02537
    32  O(17)             -0.00027       0.08299       0.02961       0.02768
    33  O(17)             -0.00024       0.07334       0.02617       0.02446
    34  O(17)             -0.00006       0.01675       0.00598       0.00559
    35  O(17)              0.00017      -0.05269      -0.01880      -0.01757
    36  O(17)              0.00015      -0.04433      -0.01582      -0.01479
    37  O(17)              0.00005      -0.01615      -0.00576      -0.00539
    38  O(17)              0.00208      -0.63162      -0.22538      -0.21069
    39  O(17)              0.00206      -0.62299      -0.22230      -0.20781
    40  O(17)             -0.01660       5.03112       1.79523       1.67820
    41  O(17)              0.00203      -0.61670      -0.22005      -0.20571
    42  O(17)              0.00026      -0.07827      -0.02793      -0.02611
    43  O(17)              0.00034      -0.10297      -0.03674      -0.03435
    44  O(17)              0.00050      -0.15266      -0.05447      -0.05092
    45  O(17)              0.00028      -0.08601      -0.03069      -0.02869
    46  O(17)              0.00236      -0.71401      -0.25478      -0.23817
    47  O(17)              0.00208      -0.63158      -0.22536      -0.21067
    48  O(17)              0.00083      -0.25227      -0.09002      -0.08415
    49  O(17)              0.00238      -0.72019      -0.25698      -0.24023
    50  W(183)             0.00000       0.00000       0.00000       0.00000
    51  W(183)             0.00000       0.00000       0.00000       0.00000
    52  W(183)             0.00000       0.00000       0.00000       0.00000
    53  W(183)             0.00000       0.00000       0.00000       0.00000
    54  O(17)              0.00031      -0.09288      -0.03314      -0.03098
    55  O(17)              0.00012      -0.03745      -0.01336      -0.01249
    56  O(17)              0.00042      -0.12822      -0.04575      -0.04277
    57  O(17)              0.00019      -0.05756      -0.02054      -0.01920
    58  O(17)              0.00022      -0.06649      -0.02373      -0.02218
    59  O(17)              0.00039      -0.11894      -0.04244      -0.03967
    60  O(17)              0.00052      -0.15756      -0.05622      -0.05256
    61  O(17)              0.00052      -0.15807      -0.05640      -0.05273
    62  O(17)             -0.00027       0.08100       0.02890       0.02702
    63  O(17)             -0.00016       0.04825       0.01722       0.01609
    64  O(17)             -0.00030       0.08951       0.03194       0.02986
    65  O(17)             -0.00032       0.09647       0.03442       0.03218
    66  O(17)             -0.00855       2.59042       0.92433       0.86407
    67  O(17)             -0.00730       2.21327       0.78975       0.73827
    68  O(17)             -0.00742       2.24835       0.80227       0.74997
    69  O(17)             -0.00782       2.37157       0.84623       0.79107
    70  K(39)             -0.00002      -0.00210      -0.00075      -0.00070
    71  K(39)             -0.00002      -0.00206      -0.00073      -0.00069
    72  K(39)             -0.00002      -0.00242      -0.00086      -0.00081
    73  V(51)              0.07067      41.61736      14.85011      13.88206
 --------------------------------------------------------
       Center         ----  Spin Dipole Couplings  ----
                      3XX-RR        3YY-RR        3ZZ-RR
 --------------------------------------------------------
     1   Atom        0.322870     -1.600170      1.277300
     2   Atom       -0.019999     -0.011699      0.031698
     3   Atom        0.009156      0.004159     -0.013316
     4   Atom       -0.019239     -0.013193      0.032432
     5   Atom        0.011922      0.005664     -0.017586
     6   Atom       -0.020313     -0.015310      0.035623
     7   Atom        0.010059      0.005201     -0.015260
     8   Atom       -0.001479     -0.001104      0.002583
     9   Atom       -0.000050      0.000387     -0.000337
    10   Atom        0.001602      0.000507     -0.002109
    11   Atom        0.003771      0.000166     -0.003936
    12   Atom        0.000682     -0.000582     -0.000100
    13   Atom       -0.046134     -0.061126      0.107260
    14   Atom       -0.036210     -0.035143      0.071353
    15   Atom       -0.003756      0.003178      0.000578
    16   Atom        0.007648      0.003464     -0.011112
    17   Atom       -0.011916      0.005123      0.006794
    18   Atom        0.001486     -0.001395     -0.000091
    19   Atom        0.002075     -0.001953     -0.000123
    20   Atom       -0.002109     -0.000295      0.002404
    21   Atom       -0.000566      0.000650     -0.000085
    22   Atom       -0.002021      0.000645      0.001376
    23   Atom       -0.001829      0.000692      0.001137
    24   Atom       -0.002418      0.001077      0.001341
    25   Atom       -0.002084      0.000629      0.001456
    26   Atom        0.000340     -0.002263      0.001923
    27   Atom        0.000526     -0.002514      0.001988
    28   Atom        0.000978     -0.003187      0.002209
    29   Atom        0.000710     -0.002784      0.002074
    30   Atom       -0.000175      0.000283     -0.000108
    31   Atom       -0.000003      0.000006     -0.000002
    32   Atom       -0.000563      0.000659     -0.000097
    33   Atom       -0.000211      0.000245     -0.000035
    34   Atom       -0.000109     -0.002020      0.002129
    35   Atom       -0.000484     -0.002747      0.003231
    36   Atom       -0.002326     -0.000639      0.002965
    37   Atom       -0.001984     -0.000767      0.002752
    38   Atom        0.006018     -0.003158     -0.002860
    39   Atom        0.006161     -0.003310     -0.002851
    40   Atom       -0.012313      0.007240      0.005072
    41   Atom       -0.004651      0.007888     -0.003237
    42   Atom        0.002697     -0.001025     -0.001672
    43   Atom        0.003084     -0.001115     -0.001969
    44   Atom       -0.004687      0.006059     -0.001372
    45   Atom       -0.003396      0.005056     -0.001659
    46   Atom       -0.001052      0.001118     -0.000066
    47   Atom        0.001482     -0.002745      0.001262
    48   Atom        0.005301     -0.007797      0.002496
    49   Atom        0.005322     -0.005212     -0.000110
    50   Atom        0.006091     -0.002747     -0.003344
    51   Atom        0.006467     -0.003170     -0.003298
    52   Atom       -0.002051      0.004544     -0.002493
    53   Atom       -0.002027      0.005456     -0.003429
    54   Atom       -0.003278     -0.001808      0.005087
    55   Atom       -0.002962     -0.002033      0.004994
    56   Atom       -0.001257     -0.004683      0.005940
    57   Atom       -0.001236     -0.003973      0.005209
    58   Atom       -0.004062      0.006517     -0.002455
    59   Atom       -0.004065      0.006893     -0.002828
    60   Atom        0.002863     -0.000098     -0.002765
    61   Atom        0.003133     -0.000444     -0.002689
    62   Atom        0.000832      0.000944     -0.001776
    63   Atom        0.001224      0.000179     -0.001403
    64   Atom        0.005366     -0.003871     -0.001495
    65   Atom        0.005001     -0.003156     -0.001845
    66   Atom       -0.029326      0.000228      0.029098
    67   Atom       -0.034592     -0.002488      0.037080
    68   Atom       -0.064094      0.022103      0.041991
    69   Atom       -0.058974      0.027046      0.031929
    70   Atom       -0.000594      0.000567      0.000026
    71   Atom        0.000436     -0.000540      0.000103
    72   Atom        0.000775     -0.000982      0.000207
    73   Atom       -1.019369      0.251783      0.767586
 --------------------------------------------------------
                        XY            XZ            YZ
 --------------------------------------------------------
     1   Atom        2.175277      0.809735     -1.243111
     2   Atom        0.057492      0.022778     -0.020122
     3   Atom       -0.021561     -0.005551      0.010199
     4   Atom        0.055082      0.023479     -0.021553
     5   Atom       -0.028847     -0.013043      0.012914
     6   Atom        0.067628      0.029813     -0.025192
     7   Atom       -0.027961     -0.011545      0.014086
     8   Atom       -0.002201     -0.002080      0.000424
     9   Atom       -0.002168     -0.003581     -0.002601
    10   Atom       -0.000452     -0.001128      0.001029
    11   Atom        0.001749      0.002458      0.005502
    12   Atom       -0.001232      0.000287      0.002291
    13   Atom        0.185813      0.082789     -0.083436
    14   Atom        0.116226      0.057666     -0.053470
    15   Atom       -0.004419     -0.013529     -0.013714
    16   Atom        0.000447      0.011195      0.007257
    17   Atom       -0.002885     -0.010665     -0.005212
    18   Atom        0.000395     -0.001736      0.000236
    19   Atom        0.000301      0.002114     -0.000576
    20   Atom        0.003816      0.001542     -0.001230
    21   Atom       -0.001285      0.001392     -0.001368
    22   Atom        0.002238     -0.001914     -0.004127
    23   Atom        0.002193      0.002209      0.003910
    24   Atom        0.002369      0.001800      0.004221
    25   Atom        0.002004     -0.002005     -0.004116
    26   Atom       -0.002028     -0.004582      0.002406
    27   Atom       -0.001843      0.004709     -0.002768
    28   Atom       -0.001415     -0.004704      0.002638
    29   Atom       -0.001647      0.004788     -0.002200
    30   Atom        0.000429     -0.000145     -0.000603
    31   Atom        0.000456      0.000680      0.000295
    32   Atom        0.000470     -0.000158      0.000860
    33   Atom        0.000307     -0.000111     -0.000653
    34   Atom        0.000632     -0.003227     -0.000887
    35   Atom        0.000890      0.004026      0.001155
    36   Atom       -0.000311     -0.001845      0.003949
    37   Atom       -0.000619      0.001505     -0.003217
    38   Atom        0.004738      0.004166      0.001802
    39   Atom        0.004933     -0.004118     -0.002044
    40   Atom        0.015437      0.007739     -0.010295
    41   Atom       -0.002416     -0.000631      0.004141
    42   Atom        0.003980     -0.002587     -0.001907
    43   Atom        0.004306      0.002865      0.001863
    44   Atom        0.000405     -0.000124      0.004165
    45   Atom       -0.000444      0.000079     -0.003590
    46   Atom       -0.004947     -0.004635      0.005402
[...]
                                 (Linear)    (Quad)   (Total)
    X1      -18.76339   0.00746   0.00000   0.00726   0.00780 -18.75560
    Y1       14.58480  -0.01122   0.00000  -0.01066  -0.01161  14.57320
    Z1       19.68752  -0.00370   0.00000  -0.00380  -0.00424  19.68328
    X2      -15.70964   0.00323   0.00000   0.01107   0.01152 -15.69812
    Y2        8.03098  -0.00044   0.00000  -0.00047  -0.00138   8.02960
    Z2       23.12792   0.00271   0.00000  -0.00067  -0.00098  23.12694
    X3      -17.12758   0.00128   0.00000  -0.01574  -0.01527 -17.14285
    Y3        7.41608   0.00096   0.00000   0.00987   0.00893   7.42502
    Z3       20.96551  -0.00361   0.00000   0.00906   0.00874  20.97425
    X4      -18.91146  -0.00155   0.00000  -0.00238  -0.00192 -18.91338
    Y4        5.46007  -0.00319   0.00000  -0.01082  -0.01174   5.44833
    Z4       21.16489  -0.00137   0.00000  -0.00961  -0.00994  21.15495
    X5      -19.25004  -0.00184   0.00000  -0.00105  -0.00063 -19.25067
    Y5        4.14540  -0.00071   0.00000  -0.00632  -0.00721   4.13819
    Z5       23.41649  -0.00273   0.00000  -0.01106  -0.01137  23.40512
    X6      -17.81728   0.00072   0.00000   0.00450   0.00489 -17.81239
    Y6        4.76234   0.00105   0.00000   0.00424   0.00337   4.76571
    Z6       25.53958  -0.00118   0.00000  -0.01376  -0.01406  25.52551
    X7      -16.04371   0.00137   0.00000   0.00987   0.01027 -16.03343
    Y7        6.71119   0.00216   0.00000   0.00228   0.00139   6.71258
    Z7       25.38156  -0.00195   0.00000  -0.00708  -0.00738  25.37418
    X8      -14.31970   0.00042   0.00000   0.00872   0.00918 -14.31052
    Y8        9.55390  -0.00022   0.00000   0.00079  -0.00014   9.55377
    Z8       23.05325   0.00028   0.00000   0.00016  -0.00015  23.05310
    X9      -20.02581  -0.00047   0.00000  -0.00587  -0.00539 -20.03120
    Y9        4.96428  -0.00088   0.00000  -0.01008  -0.01102   4.95325
    Z9       19.49858  -0.00002   0.00000  -0.00702  -0.00736  19.49122
   X10      -20.62315  -0.00028   0.00000  -0.00437  -0.00396 -20.62711
   Y10        2.60663   0.00038   0.00000  -0.00148  -0.00236   2.60427
   Z10       23.49913   0.00040   0.00000   0.00010  -0.00022  23.49891
   X11      -18.06243   0.00011   0.00000   0.00194   0.00230 -18.06014
   Y11        3.71742   0.00051   0.00000   0.00883   0.00798   3.72540
   Z11       27.30363  -0.00060   0.00000  -0.01143  -0.01172  27.29191
   X12      -14.89999  -0.00016   0.00000   0.00225   0.00264 -14.89735
   Y12        7.19930   0.00057   0.00000   0.00492   0.00404   7.20334
   Z12       27.02884   0.00012   0.00000  -0.00227  -0.00256  27.02628
   X13      -16.83748  -0.02589   0.00000  -0.07626  -0.07574 -16.91322
   Y13        8.72172  -0.01530   0.00000   0.06041   0.05944   8.78115
   Z13       18.54493   0.01459   0.00000   0.04614   0.04580  18.59073
   X14      -15.26838   0.00750   0.00000  -0.06442  -0.06388 -15.33226
   Y14       10.65272   0.03601   0.00000   0.10801   0.10703  10.75975
   Z14       18.07699   0.00015   0.00000   0.03492   0.03458  18.11157
   X15      -18.15439   0.00301   0.00000  -0.00722  -0.00669 -18.16108
   Y15        8.14116  -0.00247   0.00000  -0.00623  -0.00721   8.13396
   Z15       17.05444  -0.00012   0.00000   0.01469   0.01434  17.06878
   X16      -15.23063   0.00143   0.00000  -0.00407  -0.00351 -15.23413
   Y16       11.57405  -0.00279   0.00000   0.02152   0.02051  11.59456
   Z16       16.23475  -0.00224   0.00000  -0.00690  -0.00725  16.22750
   X17      -13.95934   0.00241   0.00000   0.00584   0.00636 -13.95299
   Y17       11.40228  -0.00321   0.00000   0.03070   0.02972  11.43200
   Z17       19.48694  -0.00072   0.00000   0.00567   0.00534  19.49228
   X18       -1.92297   0.00793   0.00000   0.02958   0.03009  -1.89288
   Y18       -3.32887  -0.00161   0.00000  -0.00476  -0.00588  -3.33475
   Z18       14.09844  -0.00171   0.00000  -0.01268  -0.01265  14.08579
   X19      -15.87838  -0.00782   0.00000  -0.02545  -0.02493 -15.90331
   Y19       -2.50698   0.00224   0.00000   0.00233   0.00130  -2.50568
   Z19       14.10624  -0.00178   0.00000  -0.01232  -0.01250  14.09375
   X20      -13.33709  -0.00603   0.00000  -0.01506  -0.01460 -13.35169
   Y20        2.52120   0.00716   0.00000   0.02457   0.02359   2.54479
   Z20       19.82816   0.00011   0.00000   0.00468   0.00447  19.83263
   X21       -4.42293   0.00619   0.00000   0.01850   0.01889  -4.40403
   Y21       -8.20696  -0.00528   0.00000  -0.02348  -0.02451  -8.23148
   Z21       19.96032   0.00176   0.00000   0.01282   0.01289  19.97321
   X22       -6.49016  -0.00128   0.00000   0.01705   0.01761  -6.47255
   Y22        1.41642  -0.01876   0.00000  -0.02430  -0.02541   1.39101
   Z22       12.29783   0.01619   0.00000   0.00695   0.00686  12.30469
   X23      -11.35721   0.00389   0.00000  -0.01292  -0.01240 -11.36961
   Y23       -7.23017   0.01923   0.00000   0.01195   0.01087  -7.21930
   Z23       12.45225   0.01905   0.00000   0.00672   0.00667  12.45891
   X24       -6.86927  -0.01279   0.00000  -0.01864  -0.01821  -6.88749
   Y24        1.73520  -0.01632   0.00000   0.00001  -0.00098   1.73421
   Z24       21.54245  -0.01852   0.00000  -0.00811  -0.00821  21.53424
   X25      -10.91919   0.01437   0.00000   0.02180   0.02217 -10.89702
   Y25       -7.30526   0.01329   0.00000  -0.00452  -0.00548  -7.31074
   Z25       21.67082  -0.01966   0.00000  -0.00774  -0.00779  21.66303
   X26       -4.66697  -0.01536   0.00000   0.00262   0.00315  -4.66381
   Y26       -4.81388   0.01454   0.00000   0.01454   0.01342  -4.80046
   Z26       12.05170   0.02011   0.00000   0.00921   0.00922  12.06092
   X27      -13.13534   0.01399   0.00000   0.00401   0.00456 -13.13078
   Y27       -0.99848  -0.01497   0.00000  -0.02456  -0.02563  -1.02411
   Z27       11.99999   0.01733   0.00000   0.01115   0.01099  12.01098
   X28      -12.91402   0.02296   0.00000   0.01566   0.01608 -12.89795
   Y28       -0.48079  -0.00567   0.00000   0.01102   0.01007  -0.47071
   Z28       21.91890  -0.02018   0.00000  -0.01241  -0.01257  21.90633
   X29       -4.85518  -0.02161   0.00000  -0.01383  -0.01345  -4.86863
   Y29       -5.08410   0.00266   0.00000  -0.01428  -0.01528  -5.09938
   Z29       21.97644  -0.02014   0.00000  -0.00909  -0.00908  21.96736
   X30       -6.06156   0.00102   0.00000  -0.00181  -0.00120  -6.06276
   Y30        3.69718   0.00284   0.00000  -0.01356  -0.01470   3.68248
   Z30       10.10386  -0.00399   0.00000  -0.00011  -0.00023  10.10363
   X31      -11.59619  -0.00069   0.00000   0.00513   0.00566 -11.59053
   Y31       -9.62000  -0.00470   0.00000   0.00253   0.00142  -9.61858
   Z31       10.31900  -0.00531   0.00000  -0.00438  -0.00440  10.31460
   X32       -5.10576   0.00351   0.00000   0.00003   0.00044  -5.10531
   Y32        3.34426   0.00360   0.00000  -0.00945  -0.01043   3.33383
   Z32       23.69196   0.00554   0.00000   0.00420   0.00410  23.69606
   X33      -12.66715  -0.00375   0.00000   0.00233   0.00266 -12.66448
   Y33       -8.84232  -0.00365   0.00000   0.00462   0.00370  -8.83862
   Z33       23.88357   0.00587   0.00000   0.00407   0.00402  23.88759
   X34       -5.09656   0.00216   0.00000   0.01563   0.01620  -5.08035
   Y34       -1.63334   0.00143   0.00000   0.00057  -0.00057  -1.63392
   Z34       10.59083  -0.00860   0.00000  -0.02806  -0.02809  10.56274
   X35      -12.69362  -0.00285   0.00000  -0.01425  -0.01370 -12.70732
   Y35       -4.28682  -0.00047   0.00000  -0.00853  -0.00963  -4.29645
   Z35       10.66817  -0.00908   0.00000  -0.02922  -0.02933  10.63884
   X36      -10.05927  -0.00162   0.00000  -0.00607  -0.00567 -10.06494
   Y36        1.07021   0.00284   0.00000   0.01729   0.01634   1.08655
   Z36       23.34718   0.00855   0.00000   0.02258   0.02244  23.36962
   X37       -7.68869   0.00075   0.00000   0.00528   0.00563  -7.68305
   Y37       -6.63370  -0.00234   0.00000  -0.01680  -0.01776  -6.65146
   Z37       23.43225   0.00860   0.00000   0.02535   0.02535  23.45760
   X38        0.56727   0.00706   0.00000  -0.00352  -0.00304   0.56423
   Y38       -0.01221   0.00289   0.00000   0.00600   0.00491  -0.00730
   Z38       17.54862   0.00171   0.00000   0.00238   0.00241  17.55103
   X39      -18.37403  -0.00691   0.00000   0.00727   0.00771 -18.36632
   Y39       -5.69312  -0.00267   0.00000  -0.00906  -0.01004  -5.70315
   Z39       17.66454   0.00162   0.00000   0.00214   0.00196  17.66650
   X40      -12.14325  -0.00383   0.00000   0.00476   0.00530 -12.13795
   Y40        6.45893   0.01150   0.00000   0.00059  -0.00044   6.45849
   Z40       16.32479  -0.00139   0.00000  -0.00089  -0.00113  16.32365
   X41       -5.59666   0.00202   0.00000  -0.00913  -0.00871  -5.60537
   Y41      -12.18884  -0.00792   0.00000  -0.00477  -0.00584 -12.19468
   Z41       16.50892  -0.00177   0.00000  -0.00237  -0.00228  16.50665
   X42       -3.43533   0.00491   0.00000   0.02526   0.02580  -3.40953
   Y42        1.46124   0.00731   0.00000   0.01446   0.01336   1.47459
   Z42       14.15709  -0.00290   0.00000  -0.01511  -0.01516  14.14193
   X43      -14.38177  -0.00549   0.00000  -0.02317  -0.02268 -14.40445
   Y43       -7.30200  -0.00695   0.00000  -0.01929  -0.02033  -7.32232
   Z43       14.29899  -0.00242   0.00000  -0.01460  -0.01470  14.28430
   X44       -8.60045   0.00176   0.00000   0.00466   0.00514  -8.59532
   Y44        4.18252   0.00877   0.00000   0.02889   0.02788   4.21041
   Z44       19.69277   0.00145   0.00000   0.00792   0.00776  19.70053
   X45       -9.18101  -0.00274   0.00000   0.00017   0.00056  -9.18046
   Y45       -9.83046  -0.00864   0.00000  -0.03208  -0.03308  -9.86354
   Z45       19.87796   0.00276   0.00000   0.01444   0.01445  19.89241
   X46       -3.11925   0.00450   0.00000   0.00203   0.00258  -3.11667
   Y46       -6.57882  -0.00418   0.00000  -0.00547  -0.00663  -6.58545
   Z46        9.85731  -0.00498   0.00000   0.00384   0.00390   9.86121
   X47      -14.77522  -0.00353   0.00000   0.00655   0.00715 -14.76807
   Y47        0.51622   0.00225   0.00000  -0.00315  -0.00425   0.51196
   Z47        9.71488  -0.00317   0.00000   0.00874   0.00854   9.72341
   X48      -15.19131  -0.00690   0.00000   0.00236   0.00274 -15.18857
   Y48       -0.35328   0.00133   0.00000   0.00010  -0.00081  -0.35409
   Z48       24.17355   0.00592   0.00000  -0.00181  -0.00201  24.17154
   X49       -2.53193   0.00653   0.00000   0.00236   0.00271  -2.52921
   Y49       -5.27138  -0.00111   0.00000  -0.00202  -0.00300  -5.27438
   Z49       24.18638   0.00548   0.00000  -0.00247  -0.00242  24.18396
   X50       -2.38080  -0.02701   0.00000  -0.00859  -0.00811  -2.38890
   Y50       -0.98010  -0.00932   0.00000  -0.00851  -0.00960  -0.98970
   Z50       16.71560  -0.00608   0.00000  -0.01827  -0.01827  16.69733
   X51      -15.43090   0.02768   0.00000   0.01250   0.01297 -15.41793
   Y51       -4.73937   0.00729   0.00000   0.00279   0.00179  -4.73758
   Z51       16.79457  -0.00670   0.00000  -0.01977  -0.01991  16.77466
   X52      -11.24045   0.01183   0.00000   0.01127   0.01177 -11.22868
   Y52        3.50997  -0.03082   0.00000  -0.01617  -0.01720   3.49277
   Z52       17.09686   0.00726   0.00000   0.01650   0.01631  17.11318
   X53       -6.54640  -0.00921   0.00000  -0.00157  -0.00115  -6.54755
   Y53       -9.22749   0.02719   0.00000   0.00847   0.00742  -9.22007
   Z53       17.31412   0.00616   0.00000   0.01849   0.01853  17.33265
   X54       -8.01643   0.00159   0.00000  -0.00036   0.00017  -8.01627
   Y54       -5.82719  -0.00352   0.00000   0.00678   0.00567  -5.82152
   Z54       11.49705  -0.00512   0.00000   0.00338   0.00336  11.50041
   X55       -9.77584  -0.00196   0.00000   0.00362   0.00419  -9.77166
   Y55       -0.07908   0.00399   0.00000  -0.01231  -0.01341  -0.09249
   Z55       11.39669  -0.00491   0.00000   0.00156   0.00144  11.39814
   X56      -11.67404  -0.00441   0.00000   0.00900   0.00939 -11.66465
   Y56       -3.77250   0.00017   0.00000   0.00455   0.00360  -3.76890
   Z56       22.50769   0.00547   0.00000  -0.00352  -0.00363  22.50406
   X57       -6.05115   0.00397   0.00000  -0.00765  -0.00726  -6.05841
   Y57       -1.79988   0.00147   0.00000  -0.00564  -0.00662  -1.80650
   Z57       22.51856   0.00515   0.00000  -0.00322  -0.00326  22.51530
   X58       -8.31968  -0.00060   0.00000   0.01046   0.01100  -8.30869
   Y58        3.01560   0.00527   0.00000  -0.01138  -0.01244   3.00316
   Z58       14.85142  -0.00257   0.00000   0.00373   0.00359  14.85502
   X59       -9.45653  -0.00074   0.00000  -0.00721  -0.00674  -9.46327
   Y59       -8.80087  -0.00569   0.00000   0.00320   0.00214  -8.79872
   Z59       15.00928  -0.00390   0.00000   0.00421   0.00421  15.01349
   X60       -4.44676   0.00376   0.00000  -0.00879  -0.00833  -4.45509
   Y60        1.11519   0.00425   0.00000   0.00020  -0.00083   1.11436
   Z60       19.02540   0.00383   0.00000  -0.00505  -0.00511  19.02029
   X61      -13.33852  -0.00423   0.00000   0.01115   0.01156 -13.32696
   Y61       -6.79793  -0.00347   0.00000  -0.00370  -0.00468  -6.80261
   Z61       19.13816   0.00374   0.00000  -0.00520  -0.00528  19.13288
   X62       -4.86689   0.00219   0.00000  -0.00048  -0.00000  -4.86689
   Y62       -7.29955  -0.00440   0.00000   0.00360   0.00251  -7.29704
   Z62       14.86027  -0.00208   0.00000   0.00931   0.00935  14.86962
   X63      -12.95480  -0.00148   0.00000   0.00924   0.00977 -12.94503
   Y63        1.48282   0.00556   0.00000  -0.00746  -0.00850   1.47433
   Z63       14.75193  -0.00067   0.00000   0.00979   0.00960  14.76154
   X64      -14.82436  -0.00473   0.00000   0.00844   0.00888 -14.81548
   Y64       -2.20323  -0.00007   0.00000   0.00297   0.00199  -2.20124
   Z64       19.19758   0.00234   0.00000  -0.01092  -0.01108  19.18650
   X65       -2.97904   0.00507   0.00000  -0.00469  -0.00425  -2.98329
   Y65       -3.48003   0.00117   0.00000  -0.00529  -0.00633  -3.48637
   Z65       19.17900   0.00185   0.00000  -0.00899  -0.00897  19.17003
   X66       -6.42135   0.05087   0.00000   0.08477   0.08528  -6.33608
   Y66       -2.12244   0.00896   0.00000   0.00771   0.00664  -2.11581
   Z66       15.15316  -0.03203   0.00000  -0.04789  -0.04793  15.10523
   X67      -11.37979  -0.05198   0.00000  -0.07972  -0.07922 -11.45901
   Y67       -3.69400  -0.01027   0.00000  -0.01831  -0.01935  -3.71335
   Z67       15.20805  -0.03165   0.00000  -0.04823  -0.04833  15.15972
   X68       -9.68839  -0.02266   0.00000  -0.03508  -0.03462  -9.72302
   Y68       -0.38287   0.04843   0.00000   0.07120   0.07019  -0.31267
   Z68       18.80228   0.03189   0.00000   0.04943   0.04932  18.85160
   X69       -8.05496   0.02221   0.00000   0.03834   0.03877  -8.01619
   Y69       -5.31873  -0.04557   0.00000  -0.07325  -0.07426  -5.39299
   Z69       18.85835   0.03199   0.00000   0.04804   0.04802  18.90636
   X70       -6.12340  -0.00021   0.00000  -0.00335  -0.00284  -6.12624
   Y70      -11.51206   0.00039   0.00000   0.00608   0.00495 -11.50712
   Z70       10.74458   0.00027   0.00000   0.00723   0.00731  10.75189
   X71       -0.33286  -0.00045   0.00000  -0.00928  -0.00889  -0.34175
   Y71        0.05093  -0.00009   0.00000  -0.00506  -0.00607   0.04486
   Z71       23.29976  -0.00032   0.00000  -0.00658  -0.00656  23.29320
   X72      -17.46229   0.00038   0.00000   0.01161   0.01198 -17.45031
   Y72       -5.52720   0.00014   0.00000   0.00180   0.00090  -5.52631
   Z72       23.40522  -0.00016   0.00000  -0.00708  -0.00724  23.39798
   X73       -8.89111   0.00103   0.00000   0.00300   0.00347  -8.88764
   Y73       -2.87258  -0.00089   0.00000  -0.00338  -0.00441  -2.87699
   Z73       16.99914  -0.00022   0.00000  -0.00046  -0.00053  16.99861
         Item               Value     Threshold  Converged?
 Maximum Force            0.051984     0.000450     NO 
 RMS     Force            0.011711     0.000300     NO 
 Maximum Displacement     0.107027     0.001800     NO 
 RMS     Displacement     0.020321     0.001200     NO 
 Predicted change in Energy=-2.096074D-02
 GradGradGradGradGradGradGradGradGradGradGradGradGradGradGradGradGradGrad

 Unable to Open any file for archive entry.
 1\1\GINC-X11P1N2\Force\UwB97XD\def2SVP\C8H8Cl1K3O40V1W12(1-)\MAYUMIAO\
 01-Jun-2024\0\\# def2svp wb97xd scrf=(smd,solvent=acetonitrile) g09def
 ault scf=(xqc,maxcycle=64) force guess=read nosymm\\Title Card\\-1,1\C
 l,-9.92915895,7.71794554,10.41818721\C,-8.31318082,4.24981213,12.23876
 723\C,-9.06352668,3.92442148,11.0944724\C,-10.00751155,2.88934533,11.1
 9997506\C,-10.18668032,2.19364866,12.39147435\C,-9.42849917,2.52012027
 ,13.51496153\C,-8.48996332,3.5514082,13.43134392\H,-7.57765973,5.05570
 679,12.19925695\H,-10.59720158,2.62698217,10.3182041\H,-10.91330335,1.
 37937109,12.43520157\H,-9.55822745,1.96717149,14.44845927\H,-7.8847360
 7,3.80970549,14.30304627\C,-8.91001086,4.61533483,9.81355315\C,-8.0796
 769,5.63717836,9.56593069\H,-9.60688821,4.30811873,9.02481908\H,-8.059
 70057,6.12472125,8.59105761\H,-7.38696707,6.03382524,10.31204485\O,-1.
 01759024,-1.76156194,7.46057321\O,-8.40247707,-1.3266365,7.46470156\O,
 -7.0576845,1.33416214,10.49260921\O,-2.34051172,-4.34293867,10.5625487
 1\W,-3.43444302,0.74953683,6.50773175\W,-6.00997547,-3.82604003,6.5894
 4497\W,-3.63506315,0.91822613,11.39977605\W,-5.77818552,-3.86577493,11
 .46770427\W,-2.46965204,-2.54739529,6.37748292\W,-6.95092417,-0.528371
 53,6.35012033\W,-6.83380716,-0.25442093,11.59898494\W,-2.56925097,-2.6
 9039236,11.62943118\O,-3.20763712,1.95646582,5.34673118\O,-6.13643822,
 -5.09068281,5.46057827\O,-2.70184945,1.76970749,12.53724632\O,-6.70316
 555,-4.67915291,12.6386398\O,-2.69698081,-0.86432802,5.60442364\O,-6.7
 1717555,-2.26848763,5.64535016\O,-5.32313744,0.56632957,12.35479557\O,
 -4.06867727,-3.5104025,12.39981445\O,0.30018572,-0.00646302,9.28633169
 \O,-9.72311556,-3.01266681,9.34767024\O,-6.42592956,3.41791703,8.63870
 523\O,-2.96162446,-6.45005812,8.73614678\O,-1.81789901,0.77325226,7.49
 160884\O,-7.61050536,-3.86405174,7.56670068\O,-4.55116342,2.21329633,1
 0.42096637\O,-4.85838241,-5.20205551,10.51896275\O,-1.65063665,-3.4813
 6396,5.21626447\O,-7.81870729,0.27316933,5.14089107\O,-8.03889688,-0.1
 8694716,12.79208986\O,-1.33983735,-2.78949588,12.79888162\W,-1.2598644
 6,-0.51864786,8.84551703\W,-8.16567842,-2.50796835,8.88730597\W,-5.948
 19025,1.85739522,9.04726973\W,-3.46420731,-4.88297974,9.16223699\O,-4.
 24211464,-3.08361379,6.08397554\O,-5.17315413,-0.04184506,6.03086956\O
 ,-6.17763449,-1.99632125,11.91055476\O,-3.20213177,-0.95245411,11.9163
 108\O,-4.40258765,1.59578714,7.8590354\O,-5.0041777,-4.65721938,7.9425
 7028\O,-2.35312605,0.59013557,10.06780938\O,-7.05844136,-3.59730947,10
 .12747761\O,-2.57544535,-3.8627539,7.86371624\O,-6.85538405,0.78467625
 ,7.80638772\O,-7.84471144,-1.16589892,10.15892276\O,-1.576438,-1.84155
 383,10.14908849\O,-3.39803439,-1.12314922,8.01870895\O,-6.02192447,-1.
 95478065,8.04775151\O,-5.12687776,-0.20260478,9.94973834\O,-4.26250046
 ,-2.81455117,9.97940796\K,-3.24036382,-6.09192217,5.68578615\K,-0.1761
 4211,0.02694893,12.32970292\K,-9.24064411,-2.92486889,12.38551065\V,-4
 .70497252,-1.52010131,8.99555988\\Version=ES64L-G16RevC.01\HF=-7327.69
 47629\S2=1.014784\S2-1=0.\S2A=0.119098\RMSD=1.029e-09\RMSF=1.171e-02\D
 ipole=1.7770575,-6.9894263,5.4695472\Quadrupole=-19.689226,44.0717978,
 -24.3825719,95.4806871,141.8044041,-66.777486\PG=C01 [X(C8H8Cl1K3O40V1
 W12)]\\@
 The archive entry for this job was punched.


  ON THE CHOICE OF THE CORRECT LANGUAGE -
 I SPEAK SPANISH TO GOD, ITALIAN TO WOMEN,
 FRENCH TO MEN, AND GERMAN TO MY HORSE.
          -- CHARLES V
 Job cpu time:       1 days  3 hours 42 minutes 16.7 seconds.
 Elapsed time:       0 days  0 hours 31 minutes 40.1 seconds.
 File lengths (MBytes):  RWF=   1856 Int=      0 D2E=      0 Chk=    306 Scr=      1
 Normal termination of Gaussian 16 at Sat Jun  1 16:00:02 2024.
