 Entering Gaussian System, Link 0=g16
 Input=opt.gjf
 Output=opt.log
 Initial command:
 /data/app/gaussian/C01-avx2//g16/l1.exe "/tmp/Gau-1839365.inp" -scrdir="/tmp/"
 Entering Link 1 = /data/app/gaussian/C01-avx2//g16/l1.exe PID=   1839366.
  
 Copyright (c) 1988-2019, Gaussian, Inc.  All Rights Reserved.
  
 This is part of the Gaussian(R) 16 program.  It is based on
 the Gaussian(R) 09 system (copyright 2009, Gaussian, Inc.),
 the Gaussian(R) 03 system (copyright 2003, Gaussian, Inc.),
 the Gaussian(R) 98 system (copyright 1998, Gaussian, Inc.),
 the Gaussian(R) 94 system (copyright 1995, Gaussian, Inc.),
 the Gaussian 92(TM) system (copyright 1992, Gaussian, Inc.),
 the Gaussian 90(TM) system (copyright 1990, Gaussian, Inc.),
 the Gaussian 88(TM) system (copyright 1988, Gaussian, Inc.),
 the Gaussian 86(TM) system (copyright 1986, Carnegie Mellon
 University), and the Gaussian 82(TM) system (copyright 1983,
 Carnegie Mellon University). Gaussian is a federally registered
 trademark of Gaussian, Inc.
  
 This software contains proprietary and confidential information,
 including trade secrets, belonging to Gaussian, Inc.
  
 This software is provided under written license and may be
 used, copied, transmitted, or stored only in accord with that
 written license.
  
 The following legend is applicable only to US Government
 contracts under FAR:
  
                    RESTRICTED RIGHTS LEGEND
  
 Use, reproduction and disclosure by the US Government is
 subject to restrictions as set forth in subparagraphs (a)
 and (c) of the Commercial Computer Software - Restricted
 Rights clause in FAR 52.227-19.
  
 Gaussian, Inc.
 340 Quinnipiac St., Bldg. 40, Wallingford CT 06492
  
  
 ---------------------------------------------------------------
 Warning -- This program may not be used in any manner that
 competes with the business of Gaussian, Inc. or will provide
 assistance to any competitor of Gaussian, Inc.  The licensee
 of this program is prohibited from giving any competitor of
 Gaussian, Inc. access to this program.  By using this program,
 the user acknowledges that Gaussian, Inc. is engaged in the
 business of creating and licensing software in the field of
 computational chemistry and represents and warrants to the
 licensee that it is not a competitor of Gaussian, Inc. and that
 it will not use this program in any manner prohibited above.
 ---------------------------------------------------------------
  

 Cite this work as:
 Gaussian 16, Revision C.01,
 M. J. Frisch, G. W. Trucks, H. B. Schlegel, G. E. Scuseria, 
 M. A. Robb, J. R. Cheeseman, G. Scalmani, V. Barone, 
 G. A. Petersson, H. Nakatsuji, X. Li, M. Caricato, A. V. Marenich, 
 J. Bloino, B. G. Janesko, R. Gomperts, B. Mennucci, H. P. Hratchian, 
 J. V. Ortiz, A. F. Izmaylov, J. L. Sonnenberg, D. Williams-Young, 
 F. Ding, F. Lipparini, F. Egidi, J. Goings, B. Peng, A. Petrone, 
 T. Henderson, D. Ranasinghe, V. G. Zakrzewski, J. Gao, N. Rega, 
 G. Zheng, W. Liang, M. Hada, M. Ehara, K. Toyota, R. Fukuda, 
 J. Hasegawa, M. Ishida, T. Nakajima, Y. Honda, O. Kitao, H. Nakai, 
 T. Vreven, K. Throssell, J. A. Montgomery, Jr., J. E. Peralta, 
 F. Ogliaro, M. J. Bearpark, J. J. Heyd, E. N. Brothers, K. N. Kudin, 
 V. N. Staroverov, T. A. Keith, R. Kobayashi, J. Normand, 
 K. Raghavachari, A. P. Rendell, J. C. Burant, S. S. Iyengar, 
 J. Tomasi, M. Cossi, J. M. Millam, M. Klene, C. Adamo, R. Cammi, 
 J. W. Ochterski, R. L. Martin, K. Morokuma, O. Farkas, 
 J. B. Foresman, and D. J. Fox, Gaussian, Inc., Wallingford CT, 2019.
 
 ******************************************
 Gaussian 16:  ES64L-G16RevC.01  3-Jul-2019
                11-Jul-2024 
 ******************************************
 %mem=48GB
 %nprocshared=28
 Will use up to   28 processors via shared memory.
 ----------------------------------------------------
 # opt td 6-31g(d) geom=connectivity g09default m062x
 ----------------------------------------------------
 1/14=-1,18=20,19=15,26=3,38=1,57=2,158=3,167=1/1,3;
 2/9=110,12=2,17=6,18=5,40=1/2;
 3/5=1,6=6,7=1,11=9,25=1,27=10,30=1,71=1,74=-55,75=-4,158=3/1,2,3,8;
 4/60=-1/1;
 5/5=2,38=5,87=10/2;
 8/6=1,10=2,87=10/1;
 9/15=2,42=1,70=2,87=10/14;
 10/5=4,87=10/2;
 6/7=2,8=2,9=2,10=2,87=10/1;
 7/12=6,13=5,87=10/1,2,3,16;
 1/14=-1,18=20,19=15,26=3,158=3,167=1/3(2);
 2/9=110/2;
 99//99;
 2/9=110/2;
 3/5=1,6=6,7=1,11=9,25=1,27=10,30=1,71=1,74=-55,75=-4,158=3/1,2,3,8;
 4/5=5,16=3,60=-1,69=1/1;
 5/5=2,38=5,87=10/2;
 8/6=1,10=2,87=10/1;
 9/15=2,42=1,49=4,70=2,87=10/14;
 10/5=4,87=10/2;
 7/12=6,13=5,87=10/1,2,3,16;
 1/14=-1,18=20,19=15,26=3,158=3,167=1/3(-8);
 2/9=110/2;
 6/7=2,8=2,9=2,10=2,87=10/1;
 99/9=10/99;
 Using 2006 physical constants.
 -------------------
 Title Card Required
 -------------------
 Symbolic Z-matrix:
 Charge =  0 Multiplicity = 1
 C                     0.81865  -0.76643   0.32404 
 C                     2.10914  -0.59406  -0.12555 
 C                     2.58853   0.61373  -0.53053 
 C                     1.86426   1.75516  -0.29082 
 C                     0.52888   1.64982   0.09257 
 C                    -0.01814   0.3748    0.42092 
 H                     3.56222   0.67018  -0.97299 
 H                    -1.02697   0.28656   0.72695 
 C                    -0.30613   2.94124   0.14066 
 N                    -0.92296   3.89521   0.17619 
 C                     2.56545   3.12696  -0.41031 
 N                     3.09037   4.13188  -0.50088 
 C                    -0.21425  -2.50042   1.75878 
 C                     1.05115  -3.14357  -0.13824 
 C                    -0.99883  -1.83844   2.62505 
 C                     0.04006  -3.85591   1.84692 
 C                     1.6283   -3.15536  -1.36323 
 C                     0.83535  -4.27684   0.59386 
 C                    -1.47959  -2.56617   3.73122 
 H                    -1.24126  -0.80692   2.488 
 C                    -0.3615   -4.58615   2.89439 
 C                     2.0545   -4.3994   -1.86822 
 H                     1.75158  -2.25719  -1.93277 
 C                     1.28577  -5.48263   0.19414 
 C                    -1.13408  -3.93582   3.88103 
 H                    -2.09689  -2.08423   4.45977 
 H                    -0.10096  -5.61799   2.97956 
 C                     1.90382  -5.56406  -1.07682 
 H                     2.49335  -4.46391  -2.84358 
 H                     1.17822  -6.34594   0.81051 
 H                    -1.4637   -4.47455   4.73897 
 H                     2.25222  -6.50314  -1.44556 
 C                     3.70868  -1.97936   1.0743 
 C                     3.84388  -1.8931   -1.29458 
 C                     3.25257  -2.19934   2.33597 
 C                     5.0147   -2.19232   0.70472 
 C                     3.47263  -2.06606  -2.58671 
 C                     5.09273  -2.15889  -0.83941 
 C                     4.24593  -2.39955   3.32576 
 H                     2.21076  -2.22355   2.57356 
 C                     5.98951  -2.34806   1.6008 
 C                     4.49922  -2.31344  -3.51236 
 H                     2.43844  -2.04313  -2.88652 
 C                     6.12156  -2.31878  -1.67398 
 C                     5.61749  -2.40707   2.95656 
 H                     3.96293  -2.5317    4.35387 
 H                     7.01184  -2.41207   1.29143 
 C                     5.83264  -2.36592  -3.05894 
 H                     4.26799  -2.45333  -4.5558 
 H                     7.11942  -2.39929  -1.30561 
 H                     6.3748   -2.45483   3.70921 
 H                     6.63846  -2.4413   -3.76532 
 N                     0.54549  -1.99527   0.63354 
 N                     3.07953  -1.43872  -0.13269 
 

 GradGradGradGradGradGradGradGradGradGradGradGradGradGradGradGradGradGrad
 Berny optimization.
 Initialization pass.
                           ----------------------------
                           !    Initial Parameters    !
                           ! (Angstroms and Degrees)  !
 --------------------------                            --------------------------
 ! Name  Definition              Value          Derivative Info.                !
 --------------------------------------------------------------------------------
 ! R1    R(1,2)                  1.3774         estimate D2E/DX2                !
 ! R2    R(1,6)                  1.4184         estimate D2E/DX2                !
 ! R3    R(1,53)                 1.2963         estimate D2E/DX2                !
 ! R4    R(2,3)                  1.3611         estimate D2E/DX2                !
 ! R5    R(2,54)                 1.2865         estimate D2E/DX2                !
 ! R6    R(3,4)                  1.3729         estimate D2E/DX2                !
 ! R7    R(3,7)                  1.071          estimate D2E/DX2                !
 ! R8    R(4,5)                  1.3933         estimate D2E/DX2                !
 ! R9    R(4,11)                 1.5452         estimate D2E/DX2                !
 ! R10   R(5,6)                  1.4257         estimate D2E/DX2                !
 ! R11   R(5,9)                  1.5386         estimate D2E/DX2                !
 ! R12   R(6,8)                  1.0579         estimate D2E/DX2                !
 ! R13   R(9,10)                 1.1366         estimate D2E/DX2                !
 ! R14   R(11,12)                1.1374         estimate D2E/DX2                !
 ! R15   R(13,15)                1.3432         estimate D2E/DX2                !
 ! R16   R(13,16)                1.382          estimate D2E/DX2                !
 ! R17   R(13,53)                1.4486         estimate D2E/DX2                !
 ! R18   R(14,17)                1.3542         estimate D2E/DX2                !
 ! R19   R(14,18)                1.3663         estimate D2E/DX2                !
 ! R20   R(14,53)                1.4731         estimate D2E/DX2                !
 ! R21   R(15,19)                1.4087         estimate D2E/DX2                !
 ! R22   R(15,20)                1.0685         estimate D2E/DX2                !
 ! R23   R(16,18)                1.5427         estimate D2E/DX2                !
 ! R24   R(16,21)                1.3385         estimate D2E/DX2                !
 ! R25   R(17,22)                1.4087         estimate D2E/DX2                !
 ! R26   R(17,23)                1.0706         estimate D2E/DX2                !
 ! R27   R(18,24)                1.3478         estimate D2E/DX2                !
 ! R28   R(19,25)                1.4205         estimate D2E/DX2                !
 ! R29   R(19,26)                1.0696         estimate D2E/DX2                !
 ! R30   R(21,25)                1.4118         estimate D2E/DX2                !
 ! R31   R(21,27)                1.0676         estimate D2E/DX2                !
 ! R32   R(22,28)                1.4161         estimate D2E/DX2                !
 ! R33   R(22,29)                1.0715         estimate D2E/DX2                !
 ! R34   R(24,28)                1.4156         estimate D2E/DX2                !
 ! R35   R(24,30)                1.0662         estimate D2E/DX2                !
 ! R36   R(25,31)                1.0653         estimate D2E/DX2                !
 ! R37   R(28,32)                1.0673         estimate D2E/DX2                !
 ! R38   R(33,35)                1.3595         estimate D2E/DX2                !
 ! R39   R(33,36)                1.3739         estimate D2E/DX2                !
 ! R40   R(33,54)                1.4646         estimate D2E/DX2                !
 ! R41   R(34,37)                1.3555         estimate D2E/DX2                !
 ! R42   R(34,38)                1.3555         estimate D2E/DX2                !
 ! R43   R(34,54)                1.4631         estimate D2E/DX2                !
 ! R44   R(35,39)                1.4165         estimate D2E/DX2                !
 ! R45   R(35,40)                1.0688         estimate D2E/DX2                !
 ! R46   R(36,38)                1.5465         estimate D2E/DX2                !
 ! R47   R(36,41)                1.3332         estimate D2E/DX2                !
 ! R48   R(37,42)                1.4042         estimate D2E/DX2                !
 ! R49   R(37,43)                1.077          estimate D2E/DX2                !
 ! R50   R(38,44)                1.3344         estimate D2E/DX2                !
 ! R51   R(39,45)                1.4204         estimate D2E/DX2                !
 ! R52   R(39,46)                1.0745         estimate D2E/DX2                !
 ! R53   R(41,45)                1.4071         estimate D2E/DX2                !
 ! R54   R(41,47)                1.07           estimate D2E/DX2                !
 ! R55   R(42,48)                1.4094         estimate D2E/DX2                !
 ! R56   R(42,49)                1.0779         estimate D2E/DX2                !
 ! R57   R(44,48)                1.4156         estimate D2E/DX2                !
 ! R58   R(44,50)                1.0667         estimate D2E/DX2                !
 ! R59   R(45,51)                1.0688         estimate D2E/DX2                !
 ! R60   R(48,52)                1.0742         estimate D2E/DX2                !
 ! A1    A(2,1,6)              118.3155         estimate D2E/DX2                !
 ! A2    A(2,1,53)             113.2025         estimate D2E/DX2                !
 ! A3    A(6,1,53)             128.4664         estimate D2E/DX2                !
 ! A4    A(1,2,3)              122.558          estimate D2E/DX2                !
 ! A5    A(1,2,54)             128.7802         estimate D2E/DX2                !
 ! A6    A(3,2,54)             108.3776         estimate D2E/DX2                !
 ! A7    A(2,3,4)              119.9995         estimate D2E/DX2                !
 ! A8    A(2,3,7)              119.3344         estimate D2E/DX2                !
 ! A9    A(4,3,7)              120.5256         estimate D2E/DX2                !
 ! A10   A(3,4,5)              119.3928         estimate D2E/DX2                !
 ! A11   A(3,4,11)             119.0248         estimate D2E/DX2                !
 ! A12   A(5,4,11)             121.5539         estimate D2E/DX2                !
 ! A13   A(4,5,6)              119.9143         estimate D2E/DX2                !
 ! A14   A(4,5,9)              117.7285         estimate D2E/DX2                !
 ! A15   A(6,5,9)              122.3571         estimate D2E/DX2                !
 ! A16   A(1,6,5)              118.5179         estimate D2E/DX2                !
 ! A17   A(1,6,8)              121.0117         estimate D2E/DX2                !
 ! A18   A(5,6,8)              120.4701         estimate D2E/DX2                !
 ! A19   A(15,13,16)           123.3501         estimate D2E/DX2                !
 ! A20   A(15,13,53)           129.4521         estimate D2E/DX2                !
 ! A21   A(16,13,53)           107.1612         estimate D2E/DX2                !
 ! A22   A(17,14,18)           123.0104         estimate D2E/DX2                !
 ! A23   A(17,14,53)           128.8311         estimate D2E/DX2                !
 ! A24   A(18,14,53)           108.1565         estimate D2E/DX2                !
 ! A25   A(13,15,19)           116.8196         estimate D2E/DX2                !
 ! A26   A(13,15,20)           121.7096         estimate D2E/DX2                !
 ! A27   A(19,15,20)           121.4689         estimate D2E/DX2                !
 ! A28   A(13,16,18)           108.1011         estimate D2E/DX2                !
 ! A29   A(13,16,21)           121.9924         estimate D2E/DX2                !
 ! A30   A(18,16,21)           129.899          estimate D2E/DX2                !
 ! A31   A(14,17,22)           117.4466         estimate D2E/DX2                !
 ! A32   A(14,17,23)           121.532          estimate D2E/DX2                !
 ! A33   A(22,17,23)           121.0199         estimate D2E/DX2                !
 ! A34   A(14,18,16)           106.8782         estimate D2E/DX2                !
 ! A35   A(14,18,24)           122.0285         estimate D2E/DX2                !
 ! A36   A(16,18,24)           131.0931         estimate D2E/DX2                !
 ! A37   A(15,19,25)           119.8626         estimate D2E/DX2                !
 ! A38   A(15,19,26)           119.9378         estimate D2E/DX2                !
 ! A39   A(25,19,26)           120.1977         estimate D2E/DX2                !
 ! A40   A(16,21,25)           117.3704         estimate D2E/DX2                !
 ! A41   A(16,21,27)           121.0969         estimate D2E/DX2                !
 ! A42   A(25,21,27)           121.5317         estimate D2E/DX2                !
 ! A43   A(17,22,28)           119.5895         estimate D2E/DX2                !
 ! A44   A(17,22,29)           120.2265         estimate D2E/DX2                !
 ! A45   A(28,22,29)           120.1836         estimate D2E/DX2                !
 ! A46   A(18,24,28)           117.6219         estimate D2E/DX2                !
 ! A47   A(18,24,30)           121.2807         estimate D2E/DX2                !
 ! A48   A(28,24,30)           121.0971         estimate D2E/DX2                !
 ! A49   A(19,25,21)           120.2351         estimate D2E/DX2                !
 ! A50   A(19,25,31)           119.8189         estimate D2E/DX2                !
 ! A51   A(21,25,31)           119.9453         estimate D2E/DX2                !
 ! A52   A(22,28,24)           120.0584         estimate D2E/DX2                !
 ! A53   A(22,28,32)           119.7218         estimate D2E/DX2                !
 ! A54   A(24,28,32)           120.2186         estimate D2E/DX2                !
 ! A55   A(35,33,36)           122.9211         estimate D2E/DX2                !
 ! A56   A(35,33,54)           132.8773         estimate D2E/DX2                !
 ! A57   A(36,33,54)           104.1158         estimate D2E/DX2                !
 ! A58   A(37,34,38)           123.1897         estimate D2E/DX2                !
 ! A59   A(37,34,54)           130.8096         estimate D2E/DX2                !
 ! A60   A(38,34,54)           105.9941         estimate D2E/DX2                !
 ! A61   A(33,35,39)           115.8527         estimate D2E/DX2                !
 ! A62   A(33,35,40)           122.4776         estimate D2E/DX2                !
 ! A63   A(39,35,40)           121.6695         estimate D2E/DX2                !
 ! A64   A(33,36,38)           108.2528         estimate D2E/DX2                !
 ! A65   A(33,36,41)           122.1644         estimate D2E/DX2                !
 ! A66   A(38,36,41)           129.5486         estimate D2E/DX2                !
 ! A67   A(34,37,42)           116.7828         estimate D2E/DX2                !
 ! A68   A(34,37,43)           121.7116         estimate D2E/DX2                !
 ! A69   A(42,37,43)           121.4835         estimate D2E/DX2                !
 ! A70   A(34,38,36)           107.0396         estimate D2E/DX2                !
 ! A71   A(34,38,44)           121.5891         estimate D2E/DX2                !
 ! A72   A(36,38,44)           131.3615         estimate D2E/DX2                !
 ! A73   A(35,39,45)           119.7542         estimate D2E/DX2                !
 ! A74   A(35,39,46)           120.0836         estimate D2E/DX2                !
 ! A75   A(45,39,46)           120.1569         estimate D2E/DX2                !
 ! A76   A(36,41,45)           117.3336         estimate D2E/DX2                !
 ! A77   A(36,41,47)           120.7466         estimate D2E/DX2                !
 ! A78   A(45,41,47)           121.9154         estimate D2E/DX2                !
 ! A79   A(37,42,48)           119.0883         estimate D2E/DX2                !
 ! A80   A(37,42,49)           120.2752         estimate D2E/DX2                !
 ! A81   A(48,42,49)           120.6349         estimate D2E/DX2                !
 ! A82   A(38,44,48)           117.2929         estimate D2E/DX2                !
 ! A83   A(38,44,50)           120.9518         estimate D2E/DX2                !
 ! A84   A(48,44,50)           121.7536         estimate D2E/DX2                !
 ! A85   A(39,45,41)           120.3657         estimate D2E/DX2                !
 ! A86   A(39,45,51)           120.0931         estimate D2E/DX2                !
 ! A87   A(41,45,51)           119.541          estimate D2E/DX2                !
 ! A88   A(42,48,44)           120.4391         estimate D2E/DX2                !
 ! A89   A(42,48,52)           120.0504         estimate D2E/DX2                !
 ! A90   A(44,48,52)           119.5105         estimate D2E/DX2                !
 ! A91   A(1,53,13)            128.7938         estimate D2E/DX2                !
 ! A92   A(1,53,14)            122.7873         estimate D2E/DX2                !
 ! A93   A(13,53,14)           108.371          estimate D2E/DX2                !
 ! A94   A(2,54,33)            124.1809         estimate D2E/DX2                !
 ! A95   A(2,54,34)            127.0382         estimate D2E/DX2                !
 ! A96   A(33,54,34)           108.3847         estimate D2E/DX2                !
 ! A97   L(5,9,10,12,-1)       180.0006         estimate D2E/DX2                !
 ! A98   L(4,11,12,10,-1)      180.5191         estimate D2E/DX2                !
 ! A99   L(5,9,10,12,-2)       180.0001         estimate D2E/DX2                !
 ! A100  L(4,11,12,10,-2)      180.0588         estimate D2E/DX2                !
 ! D1    D(6,1,2,3)             -2.8328         estimate D2E/DX2                !
 ! D2    D(6,1,2,54)           170.3089         estimate D2E/DX2                !
 ! D3    D(53,1,2,3)           178.4839         estimate D2E/DX2                !
 ! D4    D(53,1,2,54)           -8.3744         estimate D2E/DX2                !
 ! D5    D(2,1,6,5)             -2.1039         estimate D2E/DX2                !
 ! D6    D(2,1,6,8)            177.7298         estimate D2E/DX2                !
 ! D7    D(53,1,6,5)           176.3503         estimate D2E/DX2                !
 ! D8    D(53,1,6,8)            -3.8159         estimate D2E/DX2                !
 ! D9    D(2,1,53,13)          139.1281         estimate D2E/DX2                !
 ! D10   D(2,1,53,14)          -38.0555         estimate D2E/DX2                !
 ! D11   D(6,1,53,13)          -39.3914         estimate D2E/DX2                !
 ! D12   D(6,1,53,14)          143.425          estimate D2E/DX2                !
 ! D13   D(1,2,3,4)             11.0977         estimate D2E/DX2                !
 ! D14   D(1,2,3,7)           -173.188          estimate D2E/DX2                !
 ! D15   D(54,2,3,4)          -163.273          estimate D2E/DX2                !
 ! D16   D(54,2,3,7)            12.4413         estimate D2E/DX2                !
 ! D17   D(1,2,54,33)          -65.7771         estimate D2E/DX2                !
 ! D18   D(1,2,54,34)          122.3017         estimate D2E/DX2                !
 ! D19   D(3,2,54,33)          108.1349         estimate D2E/DX2                !
 ! D20   D(3,2,54,34)          -63.7863         estimate D2E/DX2                !
 ! D21   D(2,3,4,5)            -14.0681         estimate D2E/DX2                !
 ! D22   D(2,3,4,11)           164.0205         estimate D2E/DX2                !
 ! D23   D(7,3,4,5)            170.2693         estimate D2E/DX2                !
 ! D24   D(7,3,4,11)           -11.6421         estimate D2E/DX2                !
 ! D25   D(3,4,5,6)              9.1195         estimate D2E/DX2                !
 ! D26   D(3,4,5,9)           -170.7643         estimate D2E/DX2                !
 ! D27   D(11,4,5,6)          -168.9192         estimate D2E/DX2                !
 ! D28   D(11,4,5,9)            11.1971         estimate D2E/DX2                !
 ! D29   D(4,5,6,1)             -1.0771         estimate D2E/DX2                !
 ! D30   D(4,5,6,8)            179.0882         estimate D2E/DX2                !
 ! D31   D(9,5,6,1)            178.801          estimate D2E/DX2                !
 ! D32   D(9,5,6,8)             -1.0336         estimate D2E/DX2                !
 ! D33   D(16,13,15,19)          5.5044         estimate D2E/DX2                !
 ! D34   D(16,13,15,20)       -174.9969         estimate D2E/DX2                !
 ! D35   D(53,13,15,19)       -172.0049         estimate D2E/DX2                !
 ! D36   D(53,13,15,20)          7.4938         estimate D2E/DX2                !
 ! D37   D(15,13,16,18)        173.3505         estimate D2E/DX2                !
 ! D38   D(15,13,16,21)         -7.5514         estimate D2E/DX2                !
 ! D39   D(53,13,16,18)         -8.6621         estimate D2E/DX2                !
 ! D40   D(53,13,16,21)        170.436          estimate D2E/DX2                !
 ! D41   D(15,13,53,1)          12.2009         estimate D2E/DX2                !
 ! D42   D(15,13,53,14)       -170.2937         estimate D2E/DX2                !
 ! D43   D(16,13,53,1)        -165.6218         estimate D2E/DX2                !
 ! D44   D(16,13,53,14)         11.8836         estimate D2E/DX2                !
 ! D45   D(18,14,17,22)         -1.9796         estimate D2E/DX2                !
 ! D46   D(18,14,17,23)        177.5837         estimate D2E/DX2                !
 ! D47   D(53,14,17,22)        178.5989         estimate D2E/DX2                !
 ! D48   D(53,14,17,23)         -1.8379         estimate D2E/DX2                !
 ! D49   D(17,14,18,16)       -174.4488         estimate D2E/DX2                !
 ! D50   D(17,14,18,24)          5.6976         estimate D2E/DX2                !
 ! D51   D(53,14,18,16)          5.077          estimate D2E/DX2                !
 ! D52   D(53,14,18,24)       -174.7766         estimate D2E/DX2                !
 ! D53   D(17,14,53,1)         -13.3946         estimate D2E/DX2                !
 ! D54   D(17,14,53,13)        168.9181         estimate D2E/DX2                !
 ! D55   D(18,14,53,1)         167.1159         estimate D2E/DX2                !
 ! D56   D(18,14,53,13)        -10.5714         estimate D2E/DX2                !
 ! D57   D(13,15,19,25)         -0.3927         estimate D2E/DX2                !
 ! D58   D(13,15,19,26)        179.1132         estimate D2E/DX2                !
 ! D59   D(20,15,19,25)       -179.8927         estimate D2E/DX2                !
 ! D60   D(20,15,19,26)         -0.3868         estimate D2E/DX2                !
 ! D61   D(13,16,18,14)          2.2559         estimate D2E/DX2                !
 ! D62   D(13,16,18,24)       -177.9088         estimate D2E/DX2                !
 ! D63   D(21,16,18,14)       -176.7471         estimate D2E/DX2                !
 ! D64   D(21,16,18,24)          3.0883         estimate D2E/DX2                !
 ! D65   D(13,16,21,25)          3.8101         estimate D2E/DX2                !
 ! D66   D(13,16,21,27)       -175.8439         estimate D2E/DX2                !
 ! D67   D(18,16,21,25)       -177.3073         estimate D2E/DX2                !
 ! D68   D(18,16,21,27)          3.0387         estimate D2E/DX2                !
 ! D69   D(14,17,22,28)         -1.8393         estimate D2E/DX2                !
 ! D70   D(14,17,22,29)        178.3878         estimate D2E/DX2                !
 ! D71   D(23,17,22,28)        178.5951         estimate D2E/DX2                !
 ! D72   D(23,17,22,29)         -1.1778         estimate D2E/DX2                !
 ! D73   D(14,18,24,28)         -5.0906         estimate D2E/DX2                !
 ! D74   D(14,18,24,30)        175.1145         estimate D2E/DX2                !
 ! D75   D(16,18,24,28)        175.0953         estimate D2E/DX2                !
 ! D76   D(16,18,24,30)         -4.6996         estimate D2E/DX2                !
 ! D77   D(15,19,25,21)         -2.8936         estimate D2E/DX2                !
 ! D78   D(15,19,25,31)        177.4091         estimate D2E/DX2                !
 ! D79   D(26,19,25,21)        177.6018         estimate D2E/DX2                !
 ! D80   D(26,19,25,31)         -2.0955         estimate D2E/DX2                !
 ! D81   D(16,21,25,19)          1.1734         estimate D2E/DX2                !
 ! D82   D(16,21,25,31)       -179.1297         estimate D2E/DX2                !
 ! D83   D(27,21,25,19)       -179.1742         estimate D2E/DX2                !
 ! D84   D(27,21,25,31)          0.5228         estimate D2E/DX2                !
 ! D85   D(17,22,28,24)          2.2009         estimate D2E/DX2                !
 ! D86   D(17,22,28,32)       -178.2012         estimate D2E/DX2                !
 ! D87   D(29,22,28,24)       -178.0261         estimate D2E/DX2                !
 ! D88   D(29,22,28,32)          1.5718         estimate D2E/DX2                !
 ! D89   D(18,24,28,22)          1.2237         estimate D2E/DX2                !
 ! D90   D(18,24,28,32)       -178.3722         estimate D2E/DX2                !
 ! D91   D(30,24,28,22)       -178.981          estimate D2E/DX2                !
 ! D92   D(30,24,28,32)          1.4232         estimate D2E/DX2                !
 ! D93   D(36,33,35,39)         12.4826         estimate D2E/DX2                !
 ! D94   D(36,33,35,40)       -167.371          estimate D2E/DX2                !
 ! D95   D(54,33,35,39)       -163.58           estimate D2E/DX2                !
 ! D96   D(54,33,35,40)         16.5664         estimate D2E/DX2                !
 ! D97   D(35,33,36,38)        167.0298         estimate D2E/DX2                !
 ! D98   D(35,33,36,41)        -14.9087         estimate D2E/DX2                !
 ! D99   D(54,33,36,38)        -15.9444         estimate D2E/DX2                !
 ! D100  D(54,33,36,41)        162.1171         estimate D2E/DX2                !
 ! D101  D(35,33,54,2)          28.2049         estimate D2E/DX2                !
 ! D102  D(35,33,54,34)       -158.5842         estimate D2E/DX2                !
 ! D103  D(36,33,54,2)        -148.3878         estimate D2E/DX2                !
 ! D104  D(36,33,54,34)         24.8231         estimate D2E/DX2                !
 ! D105  D(38,34,37,42)        -10.9845         estimate D2E/DX2                !
 ! D106  D(38,34,37,43)        167.3258         estimate D2E/DX2                !
 ! D107  D(54,34,37,42)        170.0876         estimate D2E/DX2                !
 ! D108  D(54,34,37,43)        -11.6021         estimate D2E/DX2                !
 ! D109  D(37,34,38,36)       -165.5544         estimate D2E/DX2                !
 ! D110  D(37,34,38,44)         15.4619         estimate D2E/DX2                !
 ! D111  D(54,34,38,36)         13.6014         estimate D2E/DX2                !
 ! D112  D(54,34,38,44)       -165.3823         estimate D2E/DX2                !
 ! D113  D(37,34,54,2)         -32.2113         estimate D2E/DX2                !
 ! D114  D(37,34,54,33)        154.8259         estimate D2E/DX2                !
 ! D115  D(38,34,54,2)         148.722          estimate D2E/DX2                !
 ! D116  D(38,34,54,33)        -24.2408         estimate D2E/DX2                !
 ! D117  D(33,35,39,45)         -2.129          estimate D2E/DX2                !
 ! D118  D(33,35,39,46)        177.034          estimate D2E/DX2                !
 ! D119  D(40,35,39,45)        177.7259         estimate D2E/DX2                !
 ! D120  D(40,35,39,46)         -3.1111         estimate D2E/DX2                !
 ! D121  D(33,36,38,34)          1.6391         estimate D2E/DX2                !
 ! D122  D(33,36,38,44)       -179.5143         estimate D2E/DX2                !
 ! D123  D(41,36,38,34)       -176.2327         estimate D2E/DX2                !
 ! D124  D(41,36,38,44)          2.6139         estimate D2E/DX2                !
 ! D125  D(33,36,41,45)          5.5783         estimate D2E/DX2                !
 ! D126  D(33,36,41,47)       -173.6685         estimate D2E/DX2                !
 ! D127  D(38,36,41,45)       -176.8094         estimate D2E/DX2                !
 ! D128  D(38,36,41,47)          3.9438         estimate D2E/DX2                !
 ! D129  D(34,37,42,48)         -0.08           estimate D2E/DX2                !
 ! D130  D(34,37,42,49)       -179.6168         estimate D2E/DX2                !
 ! D131  D(43,37,42,48)       -178.3945         estimate D2E/DX2                !
 ! D132  D(43,37,42,49)          2.0688         estimate D2E/DX2                !
 ! D133  D(34,38,44,48)         -7.6635         estimate D2E/DX2                !
 ! D134  D(34,38,44,50)        171.8624         estimate D2E/DX2                !
 ! D135  D(36,38,44,48)        173.6311         estimate D2E/DX2                !
 ! D136  D(36,38,44,50)         -6.843          estimate D2E/DX2                !
 ! D137  D(35,39,45,41)         -6.2298         estimate D2E/DX2                !
 ! D138  D(35,39,45,51)        173.5907         estimate D2E/DX2                !
 ! D139  D(46,39,45,41)        174.6079         estimate D2E/DX2                !
 ! D140  D(46,39,45,51)         -5.5716         estimate D2E/DX2                !
 ! D141  D(36,41,45,39)          4.5491         estimate D2E/DX2                !
 ! D142  D(36,41,45,51)       -175.2724         estimate D2E/DX2                !
 ! D143  D(47,41,45,39)       -176.2135         estimate D2E/DX2                !
 ! D144  D(47,41,45,51)          3.965          estimate D2E/DX2                !
 ! D145  D(37,42,48,44)          6.9567         estimate D2E/DX2                !
 ! D146  D(37,42,48,52)       -172.9872         estimate D2E/DX2                !
 ! D147  D(49,42,48,44)       -173.5082         estimate D2E/DX2                !
 ! D148  D(49,42,48,52)          6.5479         estimate D2E/DX2                !
 ! D149  D(38,44,48,42)         -3.1607         estimate D2E/DX2                !
 ! D150  D(38,44,48,52)        176.7835         estimate D2E/DX2                !
 ! D151  D(50,44,48,42)        177.3175         estimate D2E/DX2                !
 ! D152  D(50,44,48,52)         -2.7383         estimate D2E/DX2                !
 --------------------------------------------------------------------------------
 Trust Radius=3.00D-01 FncErr=1.00D-07 GrdErr=1.00D-06 EigMax=2.50D+02 EigMin=1.00D-04
 Number of steps in this run=    322 maximum allowed number of steps=    324.
 GradGradGradGradGradGradGradGradGradGradGradGradGradGradGradGradGradGrad

 Stoichiometry    C32H18N4
 Framework group  C1[X(C32H18N4)]
 Deg. of freedom   156
 Full point group                 C1      NOp   1
 Largest Abelian subgroup         C1      NOp   1
 Largest concise Abelian subgroup C1      NOp   1
                         Standard orientation:                         
 ---------------------------------------------------------------------
 Center     Atomic      Atomic             Coordinates (Angstroms)
 Number     Number       Type             X           Y           Z
 ---------------------------------------------------------------------
      1          6           0       -0.675039    1.354289   -0.562929
      2          6           0        0.599138    0.978455   -0.199013
      3          6           0        1.609208    1.876118   -0.036140
      4          6           0        1.334719    3.221062   -0.009949
      5          6           0        0.088688    3.673175   -0.439276
      6          6           0       -0.951110    2.737329   -0.714512
      7          1           0        2.603994    1.520424    0.139653
      8          1           0       -1.904869    3.071690   -1.027126
      9          6           0       -0.105523    5.190922   -0.600614
     10          7           0       -0.248998    6.312090   -0.719799
     11          6           0        2.402904    4.193716    0.538413
     12          7           0        3.195491    4.901621    0.943727
     13          6           0       -2.869619    0.241316   -0.285061
     14          6           0       -1.069880   -0.937425   -1.277580
     15          6           0       -3.715733    1.199310    0.127916
     16          6           0       -3.206174   -1.097950   -0.338915
     17          6           0        0.055726   -1.233354   -1.969874
     18          6           0       -2.046062   -1.856846   -1.015705
     19          6           0       -4.960679    0.773864    0.631350
     20          1           0       -3.455747    2.234765    0.085187
     21          6           0       -4.359665   -1.559868    0.158853
     22          6           0        0.225494   -2.565760   -2.394346
     23          1           0        0.787882   -0.485189   -2.194518
     24          6           0       -1.905292   -3.159062   -1.333499
     25          6           0       -5.269959   -0.611871    0.674545
     26          1           0       -5.666934    1.494084    0.987156
     27          1           0       -4.576621   -2.605165    0.168876
     28          6           0       -0.747403   -3.537168   -2.054813
     29          1           0        1.087108   -2.843670   -2.967467
     30          1           0       -2.640437   -3.879426   -1.055242
     31          1           0       -6.194488   -0.935505    1.093414
     32          1           0       -0.606623   -4.552994   -2.350606
     33          6           0        0.611681   -0.872929    1.378786
     34          6           0        2.099792   -0.955031   -0.469486
     35          6           0       -0.526399   -0.835859    2.121518
     36          6           0        1.716628   -1.604399    1.741633
     37          6           0        2.504767   -1.024386   -1.761203
     38          6           0        2.671180   -1.674789    0.526960
     39          6           0       -0.427773   -1.369655    3.429898
     40          1           0       -1.442946   -0.432808    1.747511
     41          6           0        1.870787   -2.094317    2.971959
     42          6           0        3.709347   -1.701430   -2.011199
     43          1           0        1.918379   -0.605517   -2.561606
     44          6           0        3.855829   -2.268434    0.369702
     45          6           0        0.797426   -1.938940    3.868464
     46          1           0       -1.272981   -1.331574    4.092272
     47          1           0        2.783171   -2.573714    3.259538
     48          6           0        4.419062   -2.259452   -0.928954
     49          1           0        4.087116   -1.784917   -3.017248
     50          1           0        4.355866   -2.722504    1.195352
     51          1           0        0.910435   -2.249883    4.884746
     52          1           0        5.394599   -2.681125   -1.085567
     53          7           0       -1.484957    0.350955   -0.696435
     54          7           0        1.026564   -0.181917    0.155950
 ---------------------------------------------------------------------
 Rotational constants (GHZ):           0.1332676           0.1298196           0.0895261
 Standard basis: 6-31G(d) (6D, 7F)
 There are   576 symmetry adapted cartesian basis functions of A   symmetry.
 There are   576 symmetry adapted basis functions of A   symmetry.
   576 basis functions,  1080 primitive gaussians,   576 cartesian basis functions
   119 alpha electrons      119 beta electrons
       nuclear repulsion energy      3644.6376487242 Hartrees.
 NAtoms=   54 NActive=   54 NUniq=   54 SFac= 1.00D+00 NAtFMM=   60 NAOKFM=F Big=F
 Integral buffers will be    131072 words long.
 Regular integral format.
 Two-electron integral symmetry is turned on.
 One-electron integrals computed using PRISM.
 NBasis=   576 RedAO= T EigKep=  2.56D-04  NBF=   576
 NBsUse=   576 1.00D-06 EigRej= -1.00D+00 NBFU=   576
 ExpMin= 1.61D-01 ExpMax= 4.17D+03 ExpMxC= 6.27D+02 IAcc=2 IRadAn=         4 AccDes= 0.00D+00
 Harris functional with IExCor= 1009 and IRadAn=      -1 diagonalized for initial guess.
 HarFok:  IExCor= 1009 AccDes= 0.00D+00 IRadAn=        -1 IDoV= 1 UseB2=F ITyADJ=14
 ICtDFT=  3500011 ScaDFX=  1.000000  1.000000  1.000000  1.000000
 FoFCou: FMM=F IPFlag=           0 FMFlag=      100000 FMFlg1=           0
         NFxFlg=           0 DoJE=T BraDBF=F KetDBF=T FulRan=T
         wScrn=  0.000000 ICntrl=       500 IOpCl=  0 I1Cent=   200000004 NGrid=           0
         NMat0=    1 NMatS0=      1 NMatT0=    0 NMatD0=    1 NMtDS0=    0 NMtDT0=    0
 Petite list used in FoFCou.
 Requested convergence on RMS density matrix=1.00D-08 within 128 cycles.
 Requested convergence on MAX density matrix=1.00D-06.
 Requested convergence on             energy=1.00D-06.
 No special actions if energy rises.
 Integral accuracy reduced to 1.0D-05 until final iterations.
 Initial convergence to 1.0D-05 achieved.  Increase integral accuracy.
 SCF Done:  E(RM062X) =  -1448.49792004     A.U. after   17 cycles
            NFock= 17  Conv=0.53D-08     -V/T= 2.0074
 DoSCS=F DFT=T ScalE2(SS,OS)=  1.000000  1.000000
 ExpMin= 1.61D-01 ExpMax= 4.17D+03 ExpMxC= 6.27D+02 IAcc=3 IRadAn=         5 AccDes= 0.00D+00
 HarFok:  IExCor=  205 AccDes= 0.00D+00 IRadAn=         5 IDoV=-2 UseB2=F ITyADJ=14
 ICtDFT= 12500011 ScaDFX=  1.000000  1.000000  1.000000  1.000000
 GSVD:  LWork=       -1584 too small for GESVD, short by        7020 words or        7020 for optimal perf.
 Range of M.O.s used for correlation:    37   576
 NBasis=   576 NAE=   119 NBE=   119 NFC=    36 NFV=     0
 NROrb=    540 NOA=    83 NOB=    83 NVA=   457 NVB=   457
 Orbital symmetries:
       Occupied  (A) (A) (A) (A) (A) (A) (A) (A) (A) (A) (A) (A)
                 (A) (A) (A) (A) (A) (A) (A) (A) (A) (A) (A) (A)
                 (A) (A) (A) (A) (A) (A) (A) (A) (A) (A) (A) (A)
                 (A) (A) (A) (A) (A) (A) (A) (A) (A) (A) (A) (A)
                 (A) (A) (A) (A) (A) (A) (A) (A) (A) (A) (A) (A)
                 (A) (A) (A) (A) (A) (A) (A) (A) (A) (A) (A) (A)
                 (A) (A) (A) (A) (A) (A) (A) (A) (A) (A) (A) (A)
                 (A) (A) (A) (A) (A) (A) (A) (A) (A) (A) (A) (A)
                 (A) (A) (A) (A) (A) (A) (A) (A) (A) (A) (A) (A)
                 (A) (A) (A) (A) (A) (A) (A) (A) (A) (A) (A)
       Virtual   (A) (A) (A) (A) (A) (A) (A) (A) (A) (A) (A) (A)
                 (A) (A) (A) (A) (A) (A) (A) (A) (A) (A) (A) (A)
                 (A) (A) (A) (A) (A) (A) (A) (A) (A) (A) (A) (A)
                 (A) (A) (A) (A) (A) (A) (A) (A) (A) (A) (A) (A)
                 (A) (A) (A) (A) (A) (A) (A) (A) (A) (A) (A) (A)
                 (A) (A) (A) (A) (A) (A) (A) (A) (A) (A) (A) (A)
                 (A) (A) (A) (A) (A) (A) (A) (A) (A) (A) (A) (A)
                 (A) (A) (A) (A) (A) (A) (A) (A) (A) (A) (A) (A)
                 (A) (A) (A) (A) (A) (A) (A) (A) (A) (A) (A) (A)
                 (A) (A) (A) (A) (A) (A) (A) (A) (A) (A) (A) (A)
                 (A) (A) (A) (A) (A) (A) (A) (A) (A) (A) (A) (A)
                 (A) (A) (A) (A) (A) (A) (A) (A) (A) (A) (A) (A)
                 (A) (A) (A) (A) (A) (A) (A) (A) (A) (A) (A) (A)
                 (A) (A) (A) (A) (A) (A) (A) (A) (A) (A) (A) (A)
                 (A) (A) (A) (A) (A) (A) (A) (A) (A) (A) (A) (A)
                 (A) (A) (A) (A) (A) (A) (A) (A) (A) (A) (A) (A)
                 (A) (A) (A) (A) (A) (A) (A) (A) (A) (A) (A) (A)
                 (A) (A) (A) (A) (A) (A) (A) (A) (A) (A) (A) (A)
                 (A) (A) (A) (A) (A) (A) (A) (A) (A) (A) (A) (A)
                 (A) (A) (A) (A) (A) (A) (A) (A) (A) (A) (A) (A)
                 (A) (A) (A) (A) (A) (A) (A) (A) (A) (A) (A) (A)
                 (A) (A) (A) (A) (A) (A) (A) (A) (A) (A) (A) (A)
                 (A) (A) (A) (A) (A) (A) (A) (A) (A) (A) (A) (A)
                 (A) (A) (A) (A) (A) (A) (A) (A) (A) (A) (A) (A)
                 (A) (A) (A) (A) (A) (A) (A) (A) (A) (A) (A) (A)
                 (A) (A) (A) (A) (A) (A) (A) (A) (A) (A) (A) (A)
                 (A) (A) (A) (A) (A) (A) (A) (A) (A) (A) (A) (A)
                 (A) (A) (A) (A) (A) (A) (A) (A) (A) (A) (A) (A)
                 (A) (A) (A) (A) (A) (A) (A) (A) (A) (A) (A) (A)
                 (A) (A) (A) (A) (A) (A) (A) (A) (A) (A) (A) (A)
                 (A) (A) (A) (A) (A) (A) (A) (A) (A) (A) (A) (A)
                 (A) (A) (A) (A) (A) (A) (A) (A) (A) (A) (A) (A)
                 (A) (A) (A) (A) (A) (A) (A) (A) (A) (A) (A) (A)
                 (A) (A) (A) (A) (A) (A) (A) (A) (A) (A) (A) (A)
                 (A) (A) (A) (A) (A) (A) (A) (A) (A) (A) (A) (A)
                 (A) (A) (A) (A) (A) (A) (A) (A) (A) (A) (A) (A)
                 (A) (A) (A) (A) (A) (A) (A) (A) (A) (A) (A) (A)
                 (A) (A) (A) (A) (A) (A) (A) (A) (A) (A) (A) (A)
                 (A)
    12 initial guesses have been made.
 Convergence on wavefunction:    0.000001000000000
 Iteration     1 Dimension    12 NMult     0 NNew     12
 CISAX will form    12 AO SS matrices at one time.
 Iteration     2 Dimension    18 NMult    12 NNew      6
 Iteration     3 Dimension    24 NMult    18 NNew      6
 Iteration     4 Dimension    30 NMult    24 NNew      6
 Iteration     5 Dimension    36 NMult    30 NNew      6
 Iteration     6 Dimension    42 NMult    36 NNew      6
 Iteration     7 Dimension    48 NMult    42 NNew      6
 Iteration     8 Dimension    54 NMult    48 NNew      6
 Iteration     9 Dimension    60 NMult    54 NNew      6
 Iteration    10 Dimension    66 NMult    60 NNew      6
 Iteration    11 Dimension    72 NMult    66 NNew      6
 Iteration    12 Dimension    78 NMult    72 NNew      6
 Iteration    13 Dimension    84 NMult    78 NNew      6
 Iteration    14 Dimension    88 NMult    84 NNew      4
 Iteration    15 Dimension    90 NMult    88 NNew      2
 Iteration    16 Dimension    92 NMult    90 NNew      2
 ***********************************************************************
 Excited states from <AA,BB:AA,BB> singles matrix:
 ***********************************************************************
 
 Ground to excited state transition densities written to RWF  633
 Ground to excited state transition electric dipole moments (Au):
       state          X           Y           Z        Dip. S.      Osc.
         1         0.6424     -0.8306      0.2436      1.1620      0.1084
         2         0.5823      0.2300      0.1498      0.4144      0.0407
         3         1.1364      0.6850      0.3474      1.8813      0.1958
 Ground to excited state transition velocity dipole moments (Au):
       state          X           Y           Z        Dip. S.      Osc.
         1        -0.0915      0.1191     -0.0375      0.0240      0.1141
         2        -0.0897     -0.0445     -0.0261      0.0107      0.0484
         3        -0.1875     -0.1121     -0.0634      0.0517      0.2209
 Ground to excited state transition magnetic dipole moments (Au):
       state          X           Y           Z
         1        -0.1579      0.2349      0.4706
         2        -0.1120      0.0563      0.6769
         3        -0.3098     -0.0661      1.4451
 Ground to excited state transition velocity quadrupole moments (Au):
       state          XX          YY          ZZ          XY          XZ          YZ
         1        -0.2708      0.8590     -0.2123      0.2070      0.1190     -0.0501
         2         0.1344     -0.2184     -0.0468      0.1670     -0.0727      0.1365
         3         0.3087     -0.4424      0.0460     -0.3239     -0.1243      0.0797
 <0|del|b> * <b|rxdel|0> + <0|del|b> * <b|delr+rdel|0>
 Rotatory Strengths (R) in cgs (10**-40 erg-esu-cm/Gauss)
       state          XX          YY          ZZ    R(velocity)    E-M Angle
         1       -29.3737     23.0759    131.3799     41.6940       73.07
         2       -66.5857    -37.2027     55.1973    -16.1970       98.18
         3      -175.6823   -156.1764    213.6826    -39.3921       94.45
 1/2[<0|r|b>*<b|rxdel|0> + (<0|rxdel|b>*<b|r|0>)*]
 Rotatory Strengths (R) in cgs (10**-40 erg-esu-cm/Gauss)
       state          XX          YY          ZZ     R(length)
         1        71.7225    137.9896    -81.0781     42.8780
         2        46.1007     -9.1577    -71.7019    -11.5863
         3       248.9765     32.0401   -355.0255    -24.6697
  1/2[<0|del|b>*<b|r|0> + (<0|r|b>*<b|del|0>)*] (Au)
       state          X           Y           Z        Dip. S.   Osc.(frdel)
         1        -0.0588     -0.0989     -0.0091      0.1668      0.1112
         2        -0.0523     -0.0102     -0.0039      0.0664      0.0443
         3        -0.2131     -0.0768     -0.0220      0.3119      0.2079

 Excitation energies and oscillator strengths:
 
 Excited State   1:      Singlet-A      3.8077 eV  325.62 nm  f=0.1084  <S**2>=0.000
     118 ->120        -0.12340
     118 ->121         0.15924
     119 ->120         0.62097
     119 ->121        -0.18778
 This state for optimization and/or second-order correction.
 Total Energy, E(TD-HF/TD-DFT) =  -1448.35799058    
 Copying the excited state density for this state as the 1-particle RhoCI density.
 
 Excited State   2:      Singlet-A      4.0133 eV  308.94 nm  f=0.0407  <S**2>=0.000
     118 ->120        -0.27411
     119 ->120         0.12336
     119 ->121         0.60151
 
 Excited State   3:      Singlet-A      4.2492 eV  291.78 nm  f=0.1958  <S**2>=0.000
     118 ->120         0.58191
     119 ->120         0.21897
     119 ->121         0.24215
 SavETr:  write IOETrn=   770 NScale= 10 NData=  16 NLR=1 NState=    3 LETran=      64.
          IDoAtm=11111111111111111111111111111111111111111111111111
          IDoAtm=1111
          Differentiating once with respect to electric field.
                with respect to dipole field.
          Differentiating once with respect to nuclear coordinates.
          There are     1 degrees of freedom in the 1st order CPHF.  IDoFFX=0 NUNeed=     1.
 LinEq1:  Iter=  0 NonCon=     1 RMS=3.73D-03 Max=3.02D-01 NDo=     1
 AX will form     1 AO Fock derivatives at one time.
 LinEq1:  Iter=  1 NonCon=     1 RMS=2.39D-03 Max=2.03D-01 NDo=     1
 LinEq1:  Iter=  2 NonCon=     1 RMS=1.51D-03 Max=9.79D-02 NDo=     1
 LinEq1:  Iter=  3 NonCon=     1 RMS=7.37D-04 Max=3.82D-02 NDo=     1
 LinEq1:  Iter=  4 NonCon=     1 RMS=4.81D-04 Max=3.03D-02 NDo=     1
 LinEq1:  Iter=  5 NonCon=     1 RMS=2.76D-04 Max=9.21D-03 NDo=     1
 LinEq1:  Iter=  6 NonCon=     1 RMS=1.61D-04 Max=6.20D-03 NDo=     1
 LinEq1:  Iter=  7 NonCon=     1 RMS=1.01D-04 Max=3.88D-03 NDo=     1
 LinEq1:  Iter=  8 NonCon=     1 RMS=5.83D-05 Max=2.30D-03 NDo=     1
 LinEq1:  Iter=  9 NonCon=     1 RMS=3.81D-05 Max=2.00D-03 NDo=     1
 LinEq1:  Iter= 10 NonCon=     1 RMS=2.35D-05 Max=1.17D-03 NDo=     1
 LinEq1:  Iter= 11 NonCon=     1 RMS=1.41D-05 Max=5.19D-04 NDo=     1
 LinEq1:  Iter= 12 NonCon=     1 RMS=7.76D-06 Max=3.87D-04 NDo=     1
