 Entering Gaussian System, Link 0=g16
 Input=JOBS/0_B.gjf
 Output=JOBS/0_B.log
 Initial command:
 /data/app/gaussian/C01-avx2//g16/l1.exe "/tmp/Gau-2031251.inp" -scrdir="/tmp/"
 Entering Link 1 = /data/app/gaussian/C01-avx2//g16/l1.exe PID=   2031255.
  
 Copyright (c) 1988-2019, Gaussian, Inc.  All Rights Reserved.
  
 This is part of the Gaussian(R) 16 program.  It is based on
 the Gaussian(R) 09 system (copyright 2009, Gaussian, Inc.),
 the Gaussian(R) 03 system (copyright 2003, Gaussian, Inc.),
 the Gaussian(R) 98 system (copyright 1998, Gaussian, Inc.),
 the Gaussian(R) 94 system (copyright 1995, Gaussian, Inc.),
 the Gaussian 92(TM) system (copyright 1992, Gaussian, Inc.),
 the Gaussian 90(TM) system (copyright 1990, Gaussian, Inc.),
 the Gaussian 88(TM) system (copyright 1988, Gaussian, Inc.),
 the Gaussian 86(TM) system (copyright 1986, Carnegie Mellon
 University), and the Gaussian 82(TM) system (copyright 1983,
 Carnegie Mellon University). Gaussian is a federally registered
 trademark of Gaussian, Inc.
  
 This software contains proprietary and confidential information,
 including trade secrets, belonging to Gaussian, Inc.
  
 This software is provided under written license and may be
 used, copied, transmitted, or stored only in accord with that
 written license.
  
 The following legend is applicable only to US Government
 contracts under FAR:
  
                    RESTRICTED RIGHTS LEGEND
  
 Use, reproduction and disclosure by the US Government is
 subject to restrictions as set forth in subparagraphs (a)
 and (c) of the Commercial Computer Software - Restricted
 Rights clause in FAR 52.227-19.
  
 Gaussian, Inc.
 340 Quinnipiac St., Bldg. 40, Wallingford CT 06492
  
  
 ---------------------------------------------------------------
 Warning -- This program may not be used in any manner that
 competes with the business of Gaussian, Inc. or will provide
 assistance to any competitor of Gaussian, Inc.  The licensee
 of this program is prohibited from giving any competitor of
 Gaussian, Inc. access to this program.  By using this program,
 the user acknowledges that Gaussian, Inc. is engaged in the
 business of creating and licensing software in the field of
 computational chemistry and represents and warrants to the
 licensee that it is not a competitor of Gaussian, Inc. and that
 it will not use this program in any manner prohibited above.
 ---------------------------------------------------------------
  

 Cite this work as:
 Gaussian 16, Revision C.01,
 M. J. Frisch, G. W. Trucks, H. B. Schlegel, G. E. Scuseria, 
 M. A. Robb, J. R. Cheeseman, G. Scalmani, V. Barone, 
 G. A. Petersson, H. Nakatsuji, X. Li, M. Caricato, A. V. Marenich, 
 J. Bloino, B. G. Janesko, R. Gomperts, B. Mennucci, H. P. Hratchian, 
 J. V. Ortiz, A. F. Izmaylov, J. L. Sonnenberg, D. Williams-Young, 
 F. Ding, F. Lipparini, F. Egidi, J. Goings, B. Peng, A. Petrone, 
 T. Henderson, D. Ranasinghe, V. G. Zakrzewski, J. Gao, N. Rega, 
 G. Zheng, W. Liang, M. Hada, M. Ehara, K. Toyota, R. Fukuda, 
 J. Hasegawa, M. Ishida, T. Nakajima, Y. Honda, O. Kitao, H. Nakai, 
 T. Vreven, K. Throssell, J. A. Montgomery, Jr., J. E. Peralta, 
 F. Ogliaro, M. J. Bearpark, J. J. Heyd, E. N. Brothers, K. N. Kudin, 
 V. N. Staroverov, T. A. Keith, R. Kobayashi, J. Normand, 
 K. Raghavachari, A. P. Rendell, J. C. Burant, S. S. Iyengar, 
 J. Tomasi, M. Cossi, J. M. Millam, M. Klene, C. Adamo, R. Cammi, 
 J. W. Ochterski, R. L. Martin, K. Morokuma, O. Farkas, 
 J. B. Foresman, and D. J. Fox, Gaussian, Inc., Wallingford CT, 2019.
 
 ******************************************
 Gaussian 16:  ES64L-G16RevC.01  3-Jul-2019
                17-Jul-2024 
 ******************************************
 %chk=b.chk
 %nprocshared=56
 Will use up to   56 processors via shared memory.
 %mem=96gb
 ----------------------------------------------------------------------
 # pbe1pbe em=gd3bj genecp g09default scf=(xqc,maxcycle=64) force guess
 =read nosymm
 ----------------------------------------------------------------------
 1/10=7,30=1,38=1,158=3,167=1/1,3;
 2/12=2,15=1,17=6,18=5,40=1/2;
 3/5=7,11=2,16=1,17=8,25=1,27=10,30=1,71=1,74=-13,75=-4,116=-2,124=41,158=3/1,2,3;
 4/5=1,60=-1/1;
 5/5=2,7=64,8=3,13=1,38=6,87=10/2,8;
 6/7=2,8=2,9=2,10=2,28=1,87=10/1;
 7/29=1,30=1,87=10/1,2,3,16;
 1/10=7,30=1,158=3,167=1/3;
 99//99;
 Using 2006 physical constants.
 ----------
 Title Card
 ----------
 Symbolic Z-matrix:
 Charge =  0 Multiplicity = 3
 6                     0.        0.68002   0.00008 
 6                    -1.21642   1.35695   0.00004 
 6                    -1.23155   2.74852  0. 
 6                     0.        3.41606   0.00001 
 6                     1.23155   2.74852   0.00005 
 6                     1.21642   1.35695   0.00008 
 1                    -2.15134   3.32213  -0.00005 
 1                     0.        4.50227  -0.00001 
 1                     2.15135   3.32213   0.00005 
 6                     3.65788   0.57587  -0.00002 
 6                     1.89077  -0.89659   0.00009 
 6                     4.16297  -0.73958  -0.0001 
 6                     4.52276   1.66379  -0.00005 
 6                     5.52664  -1.00168  -0.00021 
 6                     5.89458   1.40053  -0.00017 
 1                     4.15899   2.68378   0.00001 
 6                     6.38934   0.09557  -0.00024 
 1                     5.90709  -2.01846  -0.00025 
 1                     6.58948   2.23496  -0.0002 
 1                     7.46232  -0.07111  -0.00032 
 6                    -3.65788   0.57586  -0.00003 
 6                    -1.89076  -0.89659   0.00003 
 6                    -4.16297  -0.73959  -0.00006 
 6                    -4.52276   1.66378  -0.00005 
 6                    -5.52663  -1.00169  -0.0001 
 6                    -5.89458   1.40052  -0.0001 
 1                    -4.15899   2.68378  -0.00002 
 6                    -6.38934   0.09556  -0.00012 
 1                    -5.90708  -2.01847  -0.00011 
 1                    -6.58948   2.23495  -0.00011 
 1                    -7.46231  -0.07112  -0.00015 
 7                    -2.28067   0.44557   0.00001 
 7                    -3.07258  -1.59016  -0.00004 
 7                     2.28067   0.44557   0.00009 
 7                     3.07258  -1.59016  -0.00005 
 6                     3.17355  -3.02305   0. 
 1                     3.70349  -3.3762   -0.89208 
 1                     3.70307  -3.37619   0.89234 
 1                     2.16568  -3.44211  -0.00024 
 6                    -3.17354  -3.02306   0.00004 
 1                    -3.703    -3.37619   0.89242 
 1                    -3.70354  -3.37621  -0.892 
 1                    -2.16567  -3.44211  -0.00027 
 27                    0.       -1.16925   0.00013 
 

 GradGradGradGradGradGradGradGradGradGradGradGradGradGradGradGradGradGrad
 Berny optimization.
 Initialization pass.
 Trust Radius=3.00D-01 FncErr=1.00D-07 GrdErr=1.00D-07 EigMax=2.50D+02 EigMin=1.00D-04
 Number of steps in this run=      2 maximum allowed number of steps=      2.
 GradGradGradGradGradGradGradGradGradGradGradGradGradGradGradGradGradGrad

                          Input orientation:                          
 ---------------------------------------------------------------------
 Center     Atomic      Atomic             Coordinates (Angstroms)
 Number     Number       Type             X           Y           Z
 ---------------------------------------------------------------------
      1          6           0        0.000002    0.680015    0.000082
      2          6           0       -1.216419    1.356950    0.000036
      3          6           0       -1.231548    2.748520   -0.000001
      4          6           0        0.000001    3.416063    0.000013
      5          6           0        1.231550    2.748521    0.000051
      6          6           0        1.216422    1.356951    0.000080
      7          1           0       -2.151343    3.322127   -0.000045
      8          1           0        0.000001    4.502271   -0.000011
      9          1           0        2.151345    3.322128    0.000051
     10          6           0        3.657878    0.575868   -0.000020
     11          6           0        1.890767   -0.896589    0.000090
     12          6           0        4.162974   -0.739580   -0.000102
     13          6           0        4.522762    1.663789   -0.000051
     14          6           0        5.526638   -1.001681   -0.000206
     15          6           0        5.894577    1.400531   -0.000168
     16          1           0        4.158989    2.683783    0.000014
     17          6           0        6.389343    0.095571   -0.000241
     18          1           0        5.907085   -2.018465   -0.000251
     19          1           0        6.589482    2.234959   -0.000196
     20          1           0        7.462317   -0.071107   -0.000322
     21          6           0       -3.657875    0.575864   -0.000031
     22          6           0       -1.890761   -0.896590    0.000034
     23          6           0       -4.162968   -0.739585   -0.000064
     24          6           0       -4.522760    1.663783   -0.000049
     25          6           0       -5.526632   -1.001689   -0.000104
     26          6           0       -5.894575    1.400523   -0.000096
     27          1           0       -4.158989    2.683778   -0.000021
     28          6           0       -6.389338    0.095562   -0.000121
     29          1           0       -5.907078   -2.018473   -0.000111
     30          1           0       -6.589481    2.234949   -0.000109
     31          1           0       -7.462313   -0.071118   -0.000150
     32          7           0       -2.280669    0.445569    0.000011
     33          7           0       -3.072576   -1.590161   -0.000037
     34          7           0        2.280672    0.445570    0.000092
     35          7           0        3.072583   -1.590157   -0.000047
     36          6           0        3.173546   -3.023055    0.000003
     37          1           0        3.703487   -3.376196   -0.892080
     38          1           0        3.703069   -3.376194    0.892338
     39          1           0        2.165681   -3.442111   -0.000241
     40          6           0       -3.173536   -3.023058    0.000041
     41          1           0       -3.702998   -3.376187    0.892417
     42          1           0       -3.703537   -3.376213   -0.892001
     43          1           0       -2.165671   -3.442113   -0.000268
     44         27           0        0.000002   -1.169246    0.000131
 ---------------------------------------------------------------------
                    Distance matrix (angstroms):
                    1          2          3          4          5
     1  C    0.000000
     2  C    1.392092   0.000000
     3  C    2.407370   1.391652   0.000000
     4  C    2.736048   2.391574   1.400831   0.000000
     5  C    2.407369   2.815852   2.463098   1.400830   0.000000
     6  C    1.392092   2.432841   2.815852   2.391573   1.391652
     7  H    3.407204   2.176236   1.083996   2.153394   3.431179
     8  H    3.822256   3.372347   2.142978   1.086208   2.142977
     9  H    3.407204   3.899200   3.431179   2.153394   1.083996
    10  C    3.659358   4.936483   5.350412   4.631066   3.256914
    11  C    2.461843   3.838365   4.799549   4.708924   3.704240
    12  C    4.398362   5.773500   6.423995   5.882152   4.556325
    13  C    4.628517   5.747378   5.855658   4.850343   3.465360
    14  C    5.776834   7.143666   7.728977   7.075322   5.701912
    15  C    5.938447   7.111130   7.252498   6.229638   4.853957
    16  H    4.616520   5.536741   5.390926   4.222963   2.928155
    17  C    6.416015   7.709649   8.069456   7.200650   5.800084
    18  H    6.494261   7.882749   8.583952   8.026689   6.677184
    19  H    6.770458   7.855125   7.837873   6.694495   5.382488
    20  H    7.500022   8.795442   9.139671   8.236900   6.839061
    21  C    3.659359   2.563358   3.256915   4.631068   5.350413
    22  C    2.461842   2.352271   3.704239   4.708923   4.799548
    23  C    4.398361   3.616298   4.556325   5.882153   6.423995
    24  C    4.628518   3.320548   3.465362   4.850346   5.855659
    25  C    5.776834   4.913361   5.701913   7.075324   7.728978
    26  C    5.938448   4.678359   4.853959   6.229641   7.252500
    27  H    4.616522   3.227877   2.928157   4.222966   5.390928
    28  C    6.416015   5.324490   5.800085   7.200651   8.069456
    29  H    6.494261   5.778907   6.677185   8.026691   8.583953
    30  H    6.770458   5.444325   5.382490   6.694498   7.837875
    31  H    7.500023   6.407072   6.839064   8.236902   9.139673
    32  N    2.292689   1.401158   2.530660   3.745035   4.199913
    33  N    3.820266   3.482927   4.713124   5.873926   6.111437
    34  N    2.292688   3.613898   4.199913   3.745035   2.530660
    35  N    3.820266   5.203939   6.111437   5.873925   4.713123
    36  C    4.876895   6.201309   7.260574   7.178693   6.089535
    37  H    5.564585   6.885058   7.915966   7.787581   6.664723
    38  H    5.564320   6.884782   7.915733   7.787407   6.664587
    39  H    4.656403   5.871081   7.061521   7.191990   6.260713
    40  C    4.876894   4.797372   6.089534   7.178692   7.260572
    41  H    5.564283   5.420517   6.664571   7.787377   7.915689
    42  H    5.564620   5.420730   6.664739   7.787612   7.916010
    43  H    4.656402   4.892043   6.260713   7.191990   7.061520
    44  Co   1.849261   2.803809   4.106776   4.585309   4.106776
                    6          7          8          9         10
     6  C    0.000000
     7  H    3.899200   0.000000
     8  H    3.372346   2.453777   0.000000
     9  H    2.176236   4.302688   2.453776   0.000000
    10  C    2.563357   6.425651   5.366256   3.132345   0.000000
    11  C    2.352272   5.842621   5.720375   4.226757   2.300176
    12  C    3.616298   7.507867   6.693829   4.532563   1.409087
    13  C    3.320547   6.877046   5.339695   2.893736   1.389819
    14  C    4.913360   8.811737   7.799821   5.485246   2.445593
    15  C    4.678358   8.272204   6.660842   4.207650   2.383882
    16  H    3.227876   6.342537   4.539172   2.106684   2.166661
    17  C    5.324490   9.129840   7.761617   5.326471   2.773371
    18  H    5.778906   9.667481   8.798502   6.528975   3.433584
    19  H    5.444325   8.808176   6.968641   4.569354   3.368514
    20  H    6.407071  10.194925   8.752254   6.302418   3.859059
    21  C    4.936483   3.132347   5.366258   6.425652   7.315753
    22  C    3.838363   4.226757   5.720374   5.842619   5.740690
    23  C    5.773500   4.532564   6.693830   7.507867   7.930703
    24  C    5.747378   2.893739   5.339699   6.877048   8.252660
    25  C    7.143666   5.485249   7.799824   8.811738   9.319008
    26  C    7.111130   4.207653   6.660846   8.272206   9.587983
    27  H    5.536742   2.106687   4.539176   6.342539   8.096091
    28  C    7.709649   5.326474   7.761619   9.129841  10.058690
    29  H    7.882749   6.528978   8.798505   9.667482   9.910549
    30  H    7.855126   4.569357   6.968646   8.808178  10.380796
    31  H    8.795443   6.302421   8.752258  10.194927  11.138996
    32  N    3.613899   2.879464   4.653846   5.283686   5.939976
    33  N    5.203938   4.997924   6.823376   7.170769   7.070410
    34  N    1.401158   5.283686   4.653846   2.879464   1.383356
    35  N    3.482927   7.170770   6.823374   4.997922   2.243710
    36  C    4.797373   8.283464   8.167124   6.426993   3.631367
    37  H    5.420712   8.941045   8.751105   6.933440   4.051748
    38  H    5.420535   8.940805   8.750955   6.933364   4.051807
    39  H    4.892043   8.024438   8.234280   6.764254   4.286118
    40  C    6.201307   6.426994   8.167124   8.283462   7.721430
    41  H    6.884733   6.933364   8.750927   8.940753   8.402242
    42  H    6.885103   6.933444   8.751134   8.941095   8.402678
    43  H    5.871079   6.764255   8.234280   8.024437   7.075160
    44  Co   2.803810   4.980032   5.671517   4.980032   4.052836
                   11         12         13         14         15
    11  C    0.000000
    12  C    2.277625   0.000000
    13  C    3.671911   2.430150   0.000000
    14  C    3.637389   1.388624   2.848245   0.000000
    15  C    4.615978   2.752912   1.396847   2.430227   0.000000
    16  H    4.238384   3.423365   1.082921   3.931044   2.158472
    17  C    4.606687   2.377855   2.437916   1.395787   1.395605
    18  H    4.170062   2.162746   3.933871   1.085629   3.419019
    19  H    5.646638   3.838727   2.144194   3.406681   1.085893
    20  H    5.632370   3.366381   3.413334   2.147748   2.150239
    21  C    5.740692   7.930704   8.252660   9.319009   9.587983
    22  C    3.781528   6.055771   6.905709   7.418143   8.117158
    23  C    6.055771   8.325942   9.012109   9.693150  10.282719
    24  C    6.905710   9.012110   9.045522  10.396879  10.420663
    25  C    7.418144   9.693150  10.396879  11.053270  11.671104
    26  C    8.117159  10.282720  10.420663  11.671105  11.789152
    27  H    7.029835   8.998580   8.741463  10.363107  10.135133
    28  C    8.339335  10.585308  11.024213  11.966387  12.353037
    29  H    7.878135  10.150937  11.060769  11.478838  12.286930
    30  H    9.039974  11.156304  11.126912  12.540977  12.511913
    31  H    9.389436  11.644490  12.109993  13.022242  13.437718
    32  N    4.382039   6.551726   6.911638   7.940313   8.230832
    33  N    5.011568   7.285374   8.263011   8.619327   9.452728
    34  N    1.397647   2.224329   2.551671   3.553988   3.737949
    35  N    1.370301   1.382908   3.562469   2.523626   4.111917
    36  C    2.483421   2.488619   4.877181   3.102095   5.193469
    37  H    3.198495   2.821081   5.183471   3.123722   5.330432
    38  H    3.198279   2.821293   5.183598   3.124156   5.330701
    39  H    2.560324   3.360484   5.623704   4.153520   6.111943
    40  C    5.492635   7.683661   9.011079   8.931909  10.089540
    41  H    6.183434   8.343968   9.688188   9.571898  10.757657
    42  H    6.183898   8.344418   9.688611   9.572347  10.758087
    43  H    4.788985   6.881528   8.414593   8.070150   9.403127
    44  Co   1.910323   4.185086   5.336801   5.529176   6.430379
                   16         17         18         19         20
    16  H    0.000000
    17  C    3.416624   0.000000
    18  H    5.016670   2.168345   0.000000
    19  H    2.471586   2.148729   4.307816   0.000000
    20  H    4.301325   1.085843   2.492178   2.465721   0.000000
    21  C    8.096091  10.058691   9.910550  10.380796  11.138996
    22  C    7.029833   8.339335   7.878135   9.039973   9.389435
    23  C    8.998579  10.585308  10.150936  11.156303  11.644489
    24  C    8.741462  11.024213  11.060769  11.126912  12.109992
    25  C   10.363106  11.966388  11.478838  12.540977  13.022242
    26  C   10.135132  12.353038  12.286930  12.511913  13.437718
    27  H    8.317978  10.861221  11.110218  10.757837  11.943372
    28  C   10.861220  12.778681  12.476824  13.153965  13.852658
    29  H   11.110217  12.476825  11.814163  13.200595  13.510476
    30  H   10.757837  13.153966  13.200594  13.178963  14.239765
    31  H   11.943372  13.852659  13.510476  14.239766  14.924630
    32  N    6.817536   8.677074   8.550484   9.048839   9.756676
    33  N    8.400127   9.610911   8.989870  10.391675  10.643848
    34  N    2.921930   4.123551   4.384329   4.665593   5.207341
    35  N    4.409857   3.720561   2.866679   5.196161   4.645135
    36  C    5.791295   4.479640   2.912291   6.270194   5.206492
    37  H    6.142203   4.479103   2.737633   6.372557   5.084058
    38  H    6.142266   4.479500   2.738217   6.372836   5.084524
    39  H    6.442038   5.509493   4.003108   7.197162   6.278377
    40  C    9.291607  10.058554   9.136021  11.088880  11.037907
    41  H    9.966467  10.710055   9.746485  11.756567  11.678390
    42  H    9.966873  10.710497   9.746936  11.756990  11.678832
    43  H    8.804994   9.257617   8.197327  10.434647  10.201070
    44  Co   5.669480   6.513328   5.967814   7.416863   7.542682
                   21         22         23         24         25
    21  C    0.000000
    22  C    2.300177   0.000000
    23  C    1.409087   2.277625   0.000000
    24  C    1.389818   3.671911   2.430150   0.000000
    25  C    2.445593   3.637390   1.388625   2.848245   0.000000
    26  C    2.383881   4.615978   2.752912   1.396847   2.430227
    27  H    2.166660   4.238383   3.423365   1.082922   3.931045
    28  C    2.773370   4.606687   2.377855   2.437915   1.395787
    29  H    3.433584   4.170063   2.162747   3.933872   1.085628
    30  H    3.368513   5.646637   3.838726   2.144194   3.406681
    31  H    3.859059   5.632370   3.366382   3.413335   2.147748
    32  N    1.383356   1.397648   2.224329   2.551670   3.553988
    33  N    2.243711   1.370302   1.382908   3.562469   2.523626
    34  N    5.939976   4.382037   6.551724   6.911637   7.940312
    35  N    7.070411   5.011569   7.285374   8.263012   8.619327
    36  C    7.721433   5.492637   7.683663   9.011081   8.931910
    37  H    8.402629   6.183844   8.344371   9.688563   9.572304
    38  H    8.402296   6.183492   8.344017   9.688240   9.571944
    39  H    7.075163   4.788987   6.881529   8.414594   8.070151
    40  C    3.631367   2.483421   2.488619   4.877180   3.102095
    41  H    4.051815   3.198273   2.821306   5.183609   3.124176
    42  H    4.051741   3.198502   2.821070   5.183461   3.123703
    43  H    4.286119   2.560325   3.360484   5.623704   4.153520
    44  Co   4.052835   1.910321   4.185084   5.336800   5.529173
                   26         27         28         29         30
    26  C    0.000000
    27  H    2.158472   0.000000
    28  C    1.395605   3.416624   0.000000
    29  H    3.419019   5.016670   2.168345   0.000000
    30  H    1.085892   2.471586   2.148728   4.307815   0.000000
    31  H    2.150239   4.301326   1.085844   2.492177   2.465721
    32  N    3.737948   2.921928   4.123550   4.384330   4.665591
    33  N    4.111918   4.409858   3.720561   2.866680   5.196161
    34  N    8.230832   6.817537   8.677072   8.550483   9.048839
    35  N    9.452729   8.400128   9.610910   8.989870  10.391675
    36  C   10.089542   9.291610  10.058555   9.136023  11.088882
    37  H   10.758042   9.966824  10.710453   9.746896  11.756945
    38  H   10.757706   9.966520  10.710100   9.746527  11.756614
    39  H    9.403129   8.804997   9.257617   8.197328  10.434648
    40  C    5.193469   5.791295   4.479640   2.912292   6.270193
    41  H    5.330717   6.142276   4.479519   2.738241   6.372851
    42  H    5.330417   6.142195   4.479085   2.737612   6.372541
    43  H    6.111943   6.442038   5.509492   4.003108   7.197161
    44  Co   6.430377   5.669480   6.513325   5.967812   7.416861
                   31         32         33         34         35
    31  H    0.000000
    32  N    5.207341   0.000000
    33  N    4.645135   2.184334   0.000000
    34  N    9.756676   4.561341   5.727256   0.000000
    35  N   10.643849   5.727258   6.145159   2.184332   0.000000
    36  C   11.037909   6.463731   6.408371   3.581701   1.436451
    37  H   11.678791   7.156245   7.064042   4.174478   2.093728
    38  H   11.678434   7.155923   7.063683   4.174350   2.093751
    39  H   10.201072   5.906275   5.555993   3.889381   2.062088
    40  C    5.206492   3.581701   1.436449   6.463727   6.408370
    41  H    5.084546   4.174354   2.093751   7.155863   7.063632
    42  H    5.084039   4.174477   2.093727   7.156299   7.064091
    43  H    6.278377   3.889382   2.062087   5.906272   5.555992
    44  Co   7.542681   2.794474   3.101275   2.794474   3.101277
                   36         37         38         39         40
    36  C    0.000000
    37  H    1.096065   0.000000
    38  H    1.096067   1.784418   0.000000
    39  H    1.091513   1.778924   1.778933   0.000000
    40  C    6.347082   6.943632   6.943241   5.355637   0.000000
    41  H    6.943195   7.618428   7.406067   5.936546   1.096068
    42  H    6.943678   7.407024   7.618509   5.936944   1.096065
    43  H    5.355637   5.936892   5.936598   4.331352   1.091512
    44  Co   3.675322   4.402553   4.402199   3.139440   3.675318
                   41         42         43         44
    41  H    0.000000
    42  H    1.784418   0.000000
    43  H    1.778934   1.778922   0.000000
    44  Co   4.402155   4.402591   3.139437   0.000000
 Symmetry turned off by external request.
 Stoichiometry    C22H17CoN4(3)
 Framework group  C1[X(C22H17CoN4)]
 Deg. of freedom   126
 Full point group                 C1      NOp   1
 Rotational constants (GHZ):           0.4705351           0.1017588           0.0837542
 General basis read from cards:  (5D, 7F)
 ======================================================================================================
                                       Pseudopotential Parameters
 ======================================================================================================
  Center     Atomic      Valence      Angular      Power
  Number     Number     Electrons     Momentum     of R      Exponent        Coefficient   SO-Coeffient
 ======================================================================================================
    1          6
                                   No pseudopotential on this center.
    2          6
                                   No pseudopotential on this center.
    3          6
                                   No pseudopotential on this center.
    4          6
                                   No pseudopotential on this center.
    5          6
                                   No pseudopotential on this center.
    6          6
                                   No pseudopotential on this center.
    7          1
                                   No pseudopotential on this center.
    8          1
                                   No pseudopotential on this center.
    9          1
                                   No pseudopotential on this center.
   10          6
                                   No pseudopotential on this center.
   11          6
                                   No pseudopotential on this center.
   12          6
                                   No pseudopotential on this center.
   13          6
                                   No pseudopotential on this center.
   14          6
                                   No pseudopotential on this center.
   15          6
                                   No pseudopotential on this center.
   16          1
                                   No pseudopotential on this center.
   17          6
                                   No pseudopotential on this center.
   18          1
                                   No pseudopotential on this center.
   19          1
                                   No pseudopotential on this center.
   20          1
                                   No pseudopotential on this center.
   21          6
                                   No pseudopotential on this center.
   22          6
                                   No pseudopotential on this center.
   23          6
                                   No pseudopotential on this center.
   24          6
                                   No pseudopotential on this center.
   25          6
                                   No pseudopotential on this center.
   26          6
                                   No pseudopotential on this center.
   27          1
                                   No pseudopotential on this center.
   28          6
                                   No pseudopotential on this center.
   29          1
                                   No pseudopotential on this center.
   30          1
                                   No pseudopotential on this center.
   31          1
                                   No pseudopotential on this center.
   32          7
                                   No pseudopotential on this center.
   33          7
                                   No pseudopotential on this center.
   34          7
                                   No pseudopotential on this center.
   35          7
                                   No pseudopotential on this center.
   36          6
                                   No pseudopotential on this center.
   37          1
                                   No pseudopotential on this center.
   38          1
                                   No pseudopotential on this center.
   39          1
                                   No pseudopotential on this center.
   40          6
                                   No pseudopotential on this center.
   41          1
                                   No pseudopotential on this center.
   42          1
                                   No pseudopotential on this center.
   43          1
                                   No pseudopotential on this center.
   44         27           17
                                      F and up 
                                                     2        1.0000000        0.00000000    0.00000000
                                      S - F
                                                     2       23.6600000      283.96056600    0.00000000
                                                     2       10.6100000       47.15684600    0.00000000
                                      P - F
                                                     2       25.0400000      182.21223600    0.00000000
                                                     2       10.4400000       35.23335200    0.00000000
                                      D - F
                                                     2       29.5400000      -26.47533300    0.00000000
                                                     2       10.1800000       -1.82578700    0.00000000
 ======================================================================================================
   441 basis functions,   871 primitive gaussians,   473 cartesian basis functions
    98 alpha electrons       96 beta electrons
       nuclear repulsion energy      2501.4411759940 Hartrees.
 NAtoms=   44 NActive=   44 NUniq=   44 SFac= 1.00D+00 NAtFMM=   60 NAOKFM=F Big=F
 Integral buffers will be    131072 words long.
 Raffenetti 2 integral format.
 Two-electron integral symmetry is turned off.
 Nuclear repulsion after empirical dispersion term =     2501.3819461728 Hartrees.
 One-electron integrals computed using PRISM.
   1 Symmetry operations used in ECPInt.
 ECPInt:  NShTT=   11781 NPrTT=   71406 LenC2=    9560 LenP2D=   32154.
 LDataN:  DoStor=T MaxTD1= 6 Len=  172
 NBasis=   441 RedAO= T EigKep=  3.48D-04  NBF=   441
 NBsUse=   441 1.00D-06 EigRej= -1.00D+00 NBFU=   441
 Initial guess from the checkpoint file:  "b.chk"
 B after Tr=    -0.000000   -0.000000   -0.000000
         Rot=    1.000000    0.000000    0.000000    0.000000 Ang=   0.00 deg.
 Initial guess <Sx>= 0.0000 <Sy>= 0.0000 <Sz>= 1.0000 <S**2>= 2.1544 S= 1.0506
 Requested convergence on RMS density matrix=1.00D-08 within  64 cycles.
 Requested convergence on MAX density matrix=1.00D-06.
 Requested convergence on             energy=1.00D-06.
 No special actions if energy rises.
 SCF Done:  E(UPBE1PBE) =  -1212.13785277     A.U. after    3 cycles
            NFock=  3  Conv=0.47D-08     -V/T= 2.0551
 <Sx>= 0.0000 <Sy>= 0.0000 <Sz>= 1.0000 <S**2>= 2.1544 S= 1.0506
 <L.S>=  0.00000000000    
 Annihilation of the first spin contaminant:
 S**2 before annihilation     2.1544,   after     2.0034
 QCSCF skips out because SCF is already converged.

 **********************************************************************

            Population analysis using the SCF Density.

 **********************************************************************

 Alpha  occ. eigenvalues --  -14.45070 -14.45070 -14.44610 -14.44609 -10.27368
 Alpha  occ. eigenvalues --  -10.27368 -10.27244 -10.27243 -10.27176 -10.27175
 Alpha  occ. eigenvalues --  -10.26938 -10.26938 -10.26213 -10.26213 -10.23622
 Alpha  occ. eigenvalues --  -10.23622 -10.23467 -10.23467 -10.22987 -10.22987
 Alpha  occ. eigenvalues --  -10.22897 -10.22897 -10.22516 -10.22279 -10.22274
 Alpha  occ. eigenvalues --  -10.19820  -3.93712  -2.46459  -2.43681  -2.42817
 Alpha  occ. eigenvalues --   -1.06070  -1.05978  -0.96513  -0.96029  -0.88042
 Alpha  occ. eigenvalues --   -0.87603  -0.85787  -0.80048  -0.78821  -0.77647
 Alpha  occ. eigenvalues --   -0.77538  -0.75694  -0.75053  -0.73029  -0.72839
 Alpha  occ. eigenvalues --   -0.66614  -0.65102  -0.64309  -0.63799  -0.62906
 Alpha  occ. eigenvalues --   -0.61238  -0.58832  -0.57957  -0.56240  -0.53836
 Alpha  occ. eigenvalues --   -0.53042  -0.52032  -0.49741  -0.49654  -0.49356
 Alpha  occ. eigenvalues --   -0.48081  -0.47335  -0.47155  -0.46908  -0.45828
 Alpha  occ. eigenvalues --   -0.45738  -0.45063  -0.44767  -0.44746  -0.44030
 Alpha  occ. eigenvalues --   -0.42435  -0.42065  -0.41641  -0.39000  -0.38932
 Alpha  occ. eigenvalues --   -0.38641  -0.38089  -0.37468  -0.37278  -0.36696
 Alpha  occ. eigenvalues --   -0.36171  -0.34857  -0.34725  -0.33758  -0.32191
 Alpha  occ. eigenvalues --   -0.31832  -0.30171  -0.30165  -0.27247  -0.26986
 Alpha  occ. eigenvalues --   -0.26548  -0.26014  -0.24610  -0.23819  -0.22950
 Alpha  occ. eigenvalues --   -0.20883  -0.20848  -0.09778
 Alpha virt. eigenvalues --   -0.05766  -0.02137  -0.00045   0.00246   0.00371
 Alpha virt. eigenvalues --    0.02335   0.03011   0.03796   0.04461   0.05631
 Alpha virt. eigenvalues --    0.06510   0.07891   0.07963   0.09815   0.10262
 Alpha virt. eigenvalues --    0.12503   0.12936   0.13861   0.13944   0.15201
 Alpha virt. eigenvalues --    0.15290   0.15426   0.15893   0.16516   0.16574
 Alpha virt. eigenvalues --    0.16977   0.17699   0.17938   0.18326   0.18351
 Alpha virt. eigenvalues --    0.19384   0.19770   0.19999   0.20237   0.21011
 Alpha virt. eigenvalues --    0.22142   0.23193   0.23580   0.24472   0.25513
 Alpha virt. eigenvalues --    0.25977   0.26110   0.26338   0.27520   0.27760
 Alpha virt. eigenvalues --    0.28002   0.28691   0.29591   0.30904   0.31468
 Alpha virt. eigenvalues --    0.32775   0.33459   0.34411   0.34845   0.36735
 Alpha virt. eigenvalues --    0.37763   0.38142   0.39354   0.39903   0.41427
 Alpha virt. eigenvalues --    0.42145   0.45029   0.45344   0.46315   0.46889
 Alpha virt. eigenvalues --    0.48213   0.50793   0.51022   0.51600   0.52859
 Alpha virt. eigenvalues --    0.53953   0.54155   0.56339   0.56425   0.56453
 Alpha virt. eigenvalues --    0.56497   0.57640   0.57944   0.58600   0.58662
 Alpha virt. eigenvalues --    0.58768   0.59945   0.60689   0.61518   0.61582
 Alpha virt. eigenvalues --    0.61690   0.62561   0.63037   0.63039   0.63290
 Alpha virt. eigenvalues --    0.63565   0.63957   0.64031   0.64103   0.64573
 Alpha virt. eigenvalues --    0.65102   0.65952   0.66188   0.66905   0.67441
 Alpha virt. eigenvalues --    0.67545   0.68039   0.68695   0.71034   0.71821
 Alpha virt. eigenvalues --    0.71927   0.73919   0.75601   0.76436   0.76927
 Alpha virt. eigenvalues --    0.77344   0.78213   0.80149   0.80519   0.81391
 Alpha virt. eigenvalues --    0.81779   0.82494   0.83480   0.83929   0.84215
 Alpha virt. eigenvalues --    0.84564   0.85284   0.85733   0.87069   0.87153
 Alpha virt. eigenvalues --    0.87410   0.87778   0.89636   0.90856   0.91088
 Alpha virt. eigenvalues --    0.91219   0.91473   0.91676   0.93068   0.93373
 Alpha virt. eigenvalues --    0.93445   0.94260   0.95456   0.95645   0.96316
 Alpha virt. eigenvalues --    0.97373   0.97683   0.98230   0.98350   0.98605
 Alpha virt. eigenvalues --    1.00119   1.00365   1.01583   1.02220   1.03207
 Alpha virt. eigenvalues --    1.04045   1.04521   1.06120   1.07320   1.07498
 Alpha virt. eigenvalues --    1.08760   1.09229   1.10092   1.10945   1.14069
 Alpha virt. eigenvalues --    1.15329   1.16369   1.16826   1.18142   1.18687
 Alpha virt. eigenvalues --    1.19100   1.21216   1.23746   1.23853   1.24691
 Alpha virt. eigenvalues --    1.25036   1.26463   1.27346   1.28635   1.29137
 Alpha virt. eigenvalues --    1.30053   1.30557   1.31073   1.33325   1.33595
 Alpha virt. eigenvalues --    1.34807   1.36694   1.36934   1.38255   1.39023
 Alpha virt. eigenvalues --    1.40863   1.40921   1.42053   1.42503   1.45147
 Alpha virt. eigenvalues --    1.45511   1.45824   1.46715   1.47375   1.48326
 Alpha virt. eigenvalues --    1.49229   1.49478   1.49760   1.50378   1.50394
 Alpha virt. eigenvalues --    1.51411   1.52842   1.55253   1.57829   1.57929
 Alpha virt. eigenvalues --    1.60191   1.60308   1.64011   1.65350   1.66803
 Alpha virt. eigenvalues --    1.70019   1.71641   1.73754   1.74889   1.77806
 Alpha virt. eigenvalues --    1.79706   1.79888   1.80267   1.82231   1.83457
 Alpha virt. eigenvalues --    1.84443   1.86380   1.86976   1.87044   1.87883
 Alpha virt. eigenvalues --    1.88701   1.89844   1.91604   1.92247   1.93686
 Alpha virt. eigenvalues --    1.94986   1.95894   1.96797   1.97099   1.97861
 Alpha virt. eigenvalues --    1.98131   1.98779   1.99284   1.99880   2.00057
 Alpha virt. eigenvalues --    2.00985   2.01210   2.02065   2.03522   2.05264
 Alpha virt. eigenvalues --    2.08505   2.09060   2.10567   2.13310   2.13468
 Alpha virt. eigenvalues --    2.14575   2.14821   2.15745   2.16661   2.16839
 Alpha virt. eigenvalues --    2.18021   2.18472   2.19172   2.19431   2.20602
 Alpha virt. eigenvalues --    2.21285   2.21936   2.23760   2.24648   2.24759
 Alpha virt. eigenvalues --    2.24991   2.27027   2.27462   2.27954   2.28001
 Alpha virt. eigenvalues --    2.28071   2.28105   2.28437   2.29693   2.32820
 Alpha virt. eigenvalues --    2.36364   2.36719   2.40233   2.40536   2.41083
 Alpha virt. eigenvalues --    2.41903   2.43196   2.46530   2.46785   2.47059
 Alpha virt. eigenvalues --    2.50667   2.52806   2.56788   2.58001   2.58265
 Alpha virt. eigenvalues --    2.58976   2.59040   2.61294   2.63353   2.63670
 Alpha virt. eigenvalues --    2.65777   2.67093   2.68040   2.69296   2.70877
 Alpha virt. eigenvalues --    2.72300   2.72379   2.73402   2.75630   2.76210
 Alpha virt. eigenvalues --    2.76422   2.77098   2.78398   2.78587   2.83877
 Alpha virt. eigenvalues --    2.86968   2.87096   2.88647   2.89992   2.93704
 Alpha virt. eigenvalues --    2.93769   2.96413   2.97678   2.99077   3.02595
 Alpha virt. eigenvalues --    3.06178   3.08219   3.16384   3.19468   3.20029
 Alpha virt. eigenvalues --    3.26793   3.40825   3.43054   3.47193   3.49567
 Alpha virt. eigenvalues --    3.52188   3.60069   5.55248   5.56230   5.57649
 Alpha virt. eigenvalues --    5.60296   5.61148   5.62346   5.64047  45.69736
 Alpha virt. eigenvalues --   45.93075  45.95288  63.00738
  Beta  occ. eigenvalues --  -14.44933 -14.44933 -14.44580 -14.44579 -10.27252
  Beta  occ. eigenvalues --  -10.27252 -10.27182 -10.27182 -10.27161 -10.27160
  Beta  occ. eigenvalues --  -10.26974 -10.26973 -10.26059 -10.26059 -10.23565
  Beta  occ. eigenvalues --  -10.23565 -10.23438 -10.23438 -10.22988 -10.22988
  Beta  occ. eigenvalues --  -10.22867 -10.22867 -10.22401 -10.22382 -10.22319
  Beta  occ. eigenvalues --  -10.20123  -3.87166  -2.38897  -2.38126  -2.34833
  Beta  occ. eigenvalues --   -1.05861  -1.05768  -0.96304  -0.95806  -0.87984
  Beta  occ. eigenvalues --   -0.87526  -0.85741  -0.79948  -0.78762  -0.77582
  Beta  occ. eigenvalues --   -0.77459  -0.75544  -0.74859  -0.73026  -0.72869
  Beta  occ. eigenvalues --   -0.66630  -0.64818  -0.64082  -0.63809  -0.62832
  Beta  occ. eigenvalues --   -0.61135  -0.58790  -0.57891  -0.56201  -0.53780
  Beta  occ. eigenvalues --   -0.53003  -0.51958  -0.49378  -0.49271  -0.49203
  Beta  occ. eigenvalues --   -0.48002  -0.47296  -0.47133  -0.46834  -0.45788
  Beta  occ. eigenvalues --   -0.45721  -0.45011  -0.44748  -0.44344  -0.43722
  Beta  occ. eigenvalues --   -0.42444  -0.42035  -0.41634  -0.39036  -0.38626
  Beta  occ. eigenvalues --   -0.38475  -0.37564  -0.37263  -0.36656  -0.36252
  Beta  occ. eigenvalues --   -0.36146  -0.34852  -0.34168  -0.33106  -0.31440
  Beta  occ. eigenvalues --   -0.30559  -0.29577  -0.26307  -0.26051  -0.25212
  Beta  occ. eigenvalues --   -0.24698  -0.23940  -0.22120  -0.21031  -0.20533
  Beta  occ. eigenvalues --   -0.19991
  Beta virt. eigenvalues --   -0.04529  -0.04185  -0.01371  -0.00289   0.00146
  Beta virt. eigenvalues --    0.01256   0.01775   0.02484   0.03765   0.05644
  Beta virt. eigenvalues --    0.06005   0.06056   0.08146   0.09148   0.09180
  Beta virt. eigenvalues --    0.10290   0.10702   0.12620   0.13018   0.14072
  Beta virt. eigenvalues --    0.14148   0.15424   0.15600   0.16010   0.16043
  Beta virt. eigenvalues --    0.16720   0.17030   0.17143   0.17770   0.18058
  Beta virt. eigenvalues --    0.18799   0.19111   0.19535   0.20070   0.20502
  Beta virt. eigenvalues --    0.21306   0.22301   0.23285   0.23331   0.23729
  Beta virt. eigenvalues --    0.24543   0.25674   0.26059   0.26093   0.27561
  Beta virt. eigenvalues --    0.27675   0.27840   0.28981   0.29333   0.30139
  Beta virt. eigenvalues --    0.31237   0.31669   0.32904   0.33742   0.34685
  Beta virt. eigenvalues --    0.34902   0.36920   0.37944   0.38417   0.39554
  Beta virt. eigenvalues --    0.39978   0.41439   0.42699   0.45248   0.45748
  Beta virt. eigenvalues --    0.46708   0.47234   0.48547   0.50979   0.51384
  Beta virt. eigenvalues --    0.51658   0.52951   0.54052   0.54289   0.56385
  Beta virt. eigenvalues --    0.56543   0.56544   0.56710   0.57724   0.58124
  Beta virt. eigenvalues --    0.58723   0.58817   0.58957   0.60011   0.60776
  Beta virt. eigenvalues --    0.61530   0.61831   0.61846   0.62442   0.63110
  Beta virt. eigenvalues --    0.63190   0.63353   0.63727   0.64007   0.64089
  Beta virt. eigenvalues --    0.64171   0.64625   0.65064   0.66119   0.66255
  Beta virt. eigenvalues --    0.67393   0.67774   0.67800   0.68110   0.68908
  Beta virt. eigenvalues --    0.71031   0.72014   0.72288   0.74336   0.75709
  Beta virt. eigenvalues --    0.76548   0.77021   0.77693   0.78716   0.80628
  Beta virt. eigenvalues --    0.80660   0.81578   0.82005   0.82671   0.83739
  Beta virt. eigenvalues --    0.84307   0.84354   0.84635   0.85546   0.85892
  Beta virt. eigenvalues --    0.87089   0.87426   0.87570   0.87805   0.89695
  Beta virt. eigenvalues --    0.91131   0.91144   0.91317   0.91666   0.91794
  Beta virt. eigenvalues --    0.93126   0.93471   0.94257   0.94330   0.95717
  Beta virt. eigenvalues --    0.96575   0.96822   0.97399   0.97733   0.98407
  Beta virt. eigenvalues --    0.98632   0.98636   1.00240   1.00380   1.01704
  Beta virt. eigenvalues --    1.02283   1.03255   1.04125   1.04602   1.06191
  Beta virt. eigenvalues --    1.07404   1.08801   1.09287   1.10177   1.11224
  Beta virt. eigenvalues --    1.14177   1.15080   1.15438   1.16435   1.16857
  Beta virt. eigenvalues --    1.18211   1.18725   1.19148   1.21330   1.23910
  Beta virt. eigenvalues --    1.24090   1.24755   1.25092   1.26664   1.27572
  Beta virt. eigenvalues --    1.29025   1.29369   1.30252   1.30820   1.31302
  Beta virt. eigenvalues --    1.33682   1.33891   1.35268   1.36984   1.37229
  Beta virt. eigenvalues --    1.38554   1.39214   1.41137   1.41191   1.42163
  Beta virt. eigenvalues --    1.42972   1.45235   1.45613   1.45962   1.46869
  Beta virt. eigenvalues --    1.47457   1.48425   1.49481   1.49530   1.49998
  Beta virt. eigenvalues --    1.50511   1.50538   1.51726   1.53215   1.56343
  Beta virt. eigenvalues --    1.57924   1.58289   1.60429   1.61014   1.64843
  Beta virt. eigenvalues --    1.65784   1.67099   1.70404   1.71849   1.73918
  Beta virt. eigenvalues --    1.75022   1.77854   1.80036   1.80105   1.80467
  Beta virt. eigenvalues --    1.82394   1.83529   1.84491   1.86521   1.87119
  Beta virt. eigenvalues --    1.87127   1.87964   1.88877   1.90047   1.91677
  Beta virt. eigenvalues --    1.92291   1.93741   1.95041   1.95938   1.96891
  Beta virt. eigenvalues --    1.97191   1.98025   1.98285   1.98875   1.99450
  Beta virt. eigenvalues --    2.00026   2.00284   2.01035   2.01238   2.02148
  Beta virt. eigenvalues --    2.03734   2.05440   2.08545   2.09123   2.10827
  Beta virt. eigenvalues --    2.13476   2.13776   2.14687   2.15085   2.15869
  Beta virt. eigenvalues --    2.16759   2.16936   2.18184   2.18599   2.19288
  Beta virt. eigenvalues --    2.19743   2.20724   2.21406   2.22040   2.23985
  Beta virt. eigenvalues --    2.24777   2.25205   2.25250   2.27217   2.27726
  Beta virt. eigenvalues --    2.28096   2.28161   2.28201   2.28302   2.28486
  Beta virt. eigenvalues --    2.29935   2.32955   2.36825   2.37002   2.40370
  Beta virt. eigenvalues --    2.40707   2.41237   2.43610   2.44782   2.46831
  Beta virt. eigenvalues --    2.47612   2.49122   2.50782   2.52923   2.57110
  Beta virt. eigenvalues --    2.58338   2.58426   2.59095   2.59334   2.61380
  Beta virt. eigenvalues --    2.63629   2.63816   2.66056   2.67220   2.68123
  Beta virt. eigenvalues --    2.69431   2.71227   2.72522   2.72527   2.73533
  Beta virt. eigenvalues --    2.75809   2.76344   2.76520   2.77293   2.78386
  Beta virt. eigenvalues --    2.78862   2.84058   2.87003   2.87505   2.89091
  Beta virt. eigenvalues --    2.90185   2.93976   2.95243   2.96559   2.97848
  Beta virt. eigenvalues --    3.00072   3.03092   3.06360   3.08681   3.16411
  Beta virt. eigenvalues --    3.19777   3.20409   3.26727   3.41563   3.43456
  Beta virt. eigenvalues --    3.47205   3.49557   3.52745   3.62035   5.61113
  Beta virt. eigenvalues --    5.62929   5.62957   5.64387   5.64475   5.67168
  Beta virt. eigenvalues --    5.69005  45.79844  46.00763  46.01006  63.06486
          Condensed to atoms (all electrons):
               1          2          3          4          5          6
     1  C    5.239692   0.494154  -0.074890  -0.044961  -0.074890   0.494154
     2  C    0.494154   4.622183   0.539653  -0.001229  -0.040922  -0.013422
     3  C   -0.074890   0.539653   5.032197   0.520056  -0.043552  -0.040922
     4  C   -0.044961  -0.001229   0.520056   4.912469   0.520056  -0.001229
     5  C   -0.074890  -0.040922  -0.043552   0.520056   5.032196   0.539653
     6  C    0.494154  -0.013422  -0.040922  -0.001229   0.539653   4.622183
     7  H    0.004781  -0.036885   0.351166  -0.039766   0.004197   0.000444
     8  H    0.001170   0.002455  -0.035229   0.366060  -0.035229   0.002455
     9  H    0.004781   0.000444   0.004197  -0.039766   0.351166  -0.036885
    10  C    0.007695   0.000005   0.000001   0.000117  -0.006390  -0.042925
    11  C    0.016256   0.003235  -0.000121   0.000038   0.003325  -0.070204
    12  C   -0.000870  -0.000001   0.000000  -0.000000   0.000142   0.007414
    13  C    0.000158   0.000003  -0.000002   0.000073   0.001637  -0.004982
    14  C   -0.000000  -0.000000   0.000000  -0.000000   0.000002  -0.000029
    15  C    0.000002  -0.000000   0.000000  -0.000001   0.000081   0.000070
    16  H   -0.000037   0.000001   0.000001   0.000124  -0.000096   0.000555
    17  C    0.000000   0.000000  -0.000000   0.000000  -0.000001  -0.000004
    18  H   -0.000000   0.000000   0.000000   0.000000  -0.000000   0.000002
    19  H   -0.000000   0.000000  -0.000000   0.000000   0.000002  -0.000002
    20  H   -0.000000  -0.000000   0.000000  -0.000000  -0.000000  -0.000000
    21  C    0.007695  -0.042924  -0.006390   0.000117   0.000001   0.000005
    22  C    0.016256  -0.070204   0.003325   0.000038  -0.000121   0.003235
    23  C   -0.000870   0.007414   0.000142  -0.000000   0.000000  -0.000001
    24  C    0.000158  -0.004982   0.001637   0.000073  -0.000002   0.000003
    25  C   -0.000000  -0.000029   0.000002  -0.000000   0.000000  -0.000000
    26  C    0.000002   0.000070   0.000081  -0.000001   0.000000  -0.000000
    27  H   -0.000037   0.000555  -0.000096   0.000124   0.000001   0.000001
    28  C    0.000000  -0.000004  -0.000001   0.000000  -0.000000   0.000000
    29  H   -0.000000   0.000002  -0.000000   0.000000   0.000000   0.000000
    30  H   -0.000000  -0.000002   0.000002   0.000000  -0.000000   0.000000
    31  H   -0.000000  -0.000000  -0.000000  -0.000000   0.000000  -0.000000
    32  N   -0.034181   0.256245  -0.065876   0.003979   0.000800   0.007000
    33  N    0.001277   0.006443  -0.000160   0.000001   0.000000  -0.000049
    34  N   -0.034181   0.007000   0.000800   0.003979  -0.065876   0.256245
    35  N    0.001277  -0.000049   0.000000   0.000001  -0.000160   0.006443
    36  C   -0.000016   0.000000  -0.000000  -0.000000   0.000002  -0.000050
    37  H   -0.000000  -0.000000   0.000000   0.000000  -0.000000   0.000004
    38  H   -0.000000  -0.000000   0.000000   0.000000  -0.000000   0.000004
    39  H   -0.000023   0.000001   0.000000  -0.000000  -0.000000  -0.000015
    40  C   -0.000016  -0.000050   0.000002  -0.000000  -0.000000   0.000000
    41  H   -0.000000   0.000004  -0.000000   0.000000   0.000000  -0.000000
    42  H   -0.000000   0.000004  -0.000000   0.000000   0.000000  -0.000000
    43  H   -0.000023  -0.000015  -0.000000  -0.000000   0.000000   0.000001
    44  Co   0.267387  -0.070511   0.003131   0.002755   0.003131  -0.070511
               7          8          9         10         11         12
     1  C    0.004781   0.001170   0.004781   0.007695   0.016256  -0.000870
     2  C   -0.036885   0.002455   0.000444   0.000005   0.003235  -0.000001
     3  C    0.351166  -0.035229   0.004197   0.000001  -0.000121   0.000000
     4  C   -0.039766   0.366060  -0.039766   0.000117   0.000038  -0.000000
     5  C    0.004197  -0.035229   0.351166  -0.006390   0.003325   0.000142
     6  C    0.000444   0.002455  -0.036885  -0.042925  -0.070204   0.007414
     7  H    0.546104  -0.004297  -0.000120  -0.000000  -0.000000   0.000000
     8  H   -0.004297   0.540680  -0.004297  -0.000002   0.000001  -0.000000
     9  H   -0.000120  -0.004297   0.546104   0.000314  -0.000146  -0.000032
    10  C   -0.000000  -0.000002   0.000314   4.639060  -0.073857   0.518743
    11  C   -0.000000   0.000001  -0.000146  -0.073857   4.818834  -0.056982
    12  C    0.000000  -0.000000  -0.000032   0.518743  -0.056982   4.656169
    13  C   -0.000000   0.000003   0.000176   0.532984   0.004924  -0.056372
    14  C   -0.000000   0.000000   0.000000  -0.049228   0.005849   0.531599
    15  C   -0.000000   0.000000   0.000126  -0.006190  -0.000082  -0.038323
    16  H   -0.000000  -0.000011   0.006263  -0.034847  -0.000158   0.003756
    17  C    0.000000  -0.000000   0.000001  -0.039757  -0.000081  -0.007580
    18  H    0.000000  -0.000000  -0.000000   0.003894  -0.000218  -0.038513
    19  H    0.000000   0.000000  -0.000009   0.002008   0.000003   0.000949
    20  H   -0.000000  -0.000000   0.000000   0.000912   0.000003   0.002237
    21  C    0.000314  -0.000002  -0.000000  -0.000000  -0.000009   0.000000
    22  C   -0.000146   0.000001  -0.000000  -0.000009  -0.017356  -0.000003
    23  C   -0.000032  -0.000000   0.000000   0.000000  -0.000003  -0.000000
    24  C    0.000176   0.000003  -0.000000   0.000000   0.000000  -0.000000
    25  C    0.000000   0.000000  -0.000000   0.000000   0.000000   0.000000
    26  C    0.000126   0.000000  -0.000000  -0.000000  -0.000000  -0.000000
    27  H    0.006263  -0.000011  -0.000000   0.000000   0.000000  -0.000000
    28  C    0.000001  -0.000000   0.000000   0.000000  -0.000000  -0.000000
    29  H   -0.000000  -0.000000   0.000000   0.000000   0.000000  -0.000000
    30  H   -0.000009   0.000000   0.000000   0.000000   0.000000   0.000000
    31  H    0.000000  -0.000000  -0.000000   0.000000   0.000000   0.000000
    32  N   -0.004638  -0.000099   0.000007   0.000000   0.000368   0.000000
    33  N    0.000002  -0.000000  -0.000000  -0.000000   0.000024   0.000000
    34  N    0.000007  -0.000099  -0.004638   0.265329   0.352439  -0.041091
    35  N   -0.000000  -0.000000   0.000002  -0.044652   0.315582   0.276190
    36  C   -0.000000   0.000000  -0.000000   0.005858  -0.043269  -0.047984
    37  H    0.000000  -0.000000  -0.000000  -0.000146   0.000680  -0.001386
    38  H    0.000000  -0.000000  -0.000000  -0.000146   0.000676  -0.001383
    39  H    0.000000   0.000000   0.000000   0.000016  -0.000265   0.002653
    40  C   -0.000000   0.000000  -0.000000   0.000000   0.000019   0.000000
    41  H   -0.000000  -0.000000   0.000000  -0.000000  -0.000000  -0.000000
    42  H   -0.000000  -0.000000   0.000000  -0.000000  -0.000000  -0.000000
    43  H    0.000000   0.000000   0.000000   0.000000  -0.000001  -0.000000
    44  Co  -0.000485   0.000179  -0.000485   0.007797   0.365595   0.005094
              13         14         15         16         17         18
     1  C    0.000158  -0.000000   0.000002  -0.000037   0.000000  -0.000000
     2  C    0.000003  -0.000000  -0.000000   0.000001   0.000000   0.000000
     3  C   -0.000002   0.000000   0.000000   0.000001  -0.000000   0.000000
     4  C    0.000073  -0.000000  -0.000001   0.000124   0.000000   0.000000
     5  C    0.001637   0.000002   0.000081  -0.000096  -0.000001  -0.000000
     6  C   -0.004982  -0.000029   0.000070   0.000555  -0.000004   0.000002
     7  H   -0.000000  -0.000000  -0.000000  -0.000000   0.000000   0.000000
     8  H    0.000003   0.000000   0.000000  -0.000011  -0.000000  -0.000000
     9  H    0.000176   0.000000   0.000126   0.006263   0.000001  -0.000000
    10  C    0.532984  -0.049228  -0.006190  -0.034847  -0.039757   0.003894
    11  C    0.004924   0.005849  -0.000082  -0.000158  -0.000081  -0.000218
    12  C   -0.056372   0.531599  -0.038323   0.003756  -0.007580  -0.038513
    13  C    5.022357  -0.044081   0.513595   0.356036  -0.035859   0.000271
    14  C   -0.044081   5.030844  -0.038717   0.000451   0.518663   0.362362
    15  C    0.513595  -0.038717   4.899577  -0.036656   0.554386   0.003979
    16  H    0.356036   0.000451  -0.036656   0.520608   0.003755   0.000014
    17  C   -0.035859   0.518663   0.554386   0.003755   4.891679  -0.036158
    18  H    0.000271   0.362362   0.003979   0.000014  -0.036158   0.537818
    19  H   -0.036350   0.004050   0.368735  -0.004206  -0.036162  -0.000150
    20  H    0.003968  -0.036952  -0.035952  -0.000149   0.368286  -0.004283
    21  C    0.000000   0.000000  -0.000000   0.000000   0.000000   0.000000
    22  C    0.000000   0.000000  -0.000000   0.000000  -0.000000   0.000000
    23  C   -0.000000   0.000000  -0.000000  -0.000000  -0.000000  -0.000000
    24  C    0.000000   0.000000  -0.000000   0.000000   0.000000   0.000000
    25  C    0.000000  -0.000000   0.000000  -0.000000  -0.000000   0.000000
    26  C   -0.000000   0.000000  -0.000000   0.000000   0.000000   0.000000
    27  H    0.000000  -0.000000   0.000000   0.000000   0.000000  -0.000000
    28  C    0.000000  -0.000000   0.000000   0.000000   0.000000   0.000000
    29  H    0.000000   0.000000   0.000000  -0.000000   0.000000  -0.000000
    30  H   -0.000000  -0.000000   0.000000  -0.000000   0.000000   0.000000
    31  H   -0.000000   0.000000   0.000000  -0.000000   0.000000   0.000000
    32  N   -0.000000   0.000000   0.000000   0.000000   0.000000  -0.000000
    33  N    0.000000  -0.000000   0.000000   0.000000   0.000000  -0.000000
    34  N   -0.076478   0.009130   0.005185  -0.004715  -0.000178  -0.000092
    35  N    0.009358  -0.083714  -0.000134  -0.000100   0.005389  -0.007093
    36  C   -0.000117  -0.002862   0.000009   0.000003  -0.000116   0.004059
    37  H   -0.000009   0.002766  -0.000002  -0.000000  -0.000005   0.000542
    38  H   -0.000009   0.002764  -0.000002  -0.000000  -0.000006   0.000541
    39  H    0.000006   0.000031  -0.000000  -0.000000   0.000001  -0.000034
    40  C    0.000000   0.000000  -0.000000   0.000000   0.000000  -0.000000
    41  H    0.000000   0.000000  -0.000000   0.000000  -0.000000  -0.000000
    42  H    0.000000   0.000000  -0.000000   0.000000  -0.000000  -0.000000
    43  H    0.000000   0.000000  -0.000000   0.000000  -0.000000   0.000000
    44  Co  -0.000503  -0.000435  -0.000007   0.000063  -0.000002   0.000016
              19         20         21         22         23         24
     1  C   -0.000000  -0.000000   0.007695   0.016256  -0.000870   0.000158
     2  C    0.000000  -0.000000  -0.042924  -0.070204   0.007414  -0.004982
     3  C   -0.000000   0.000000  -0.006390   0.003325   0.000142   0.001637
     4  C    0.000000  -0.000000   0.000117   0.000038  -0.000000   0.000073
     5  C    0.000002  -0.000000   0.000001  -0.000121   0.000000  -0.000002
     6  C   -0.000002  -0.000000   0.000005   0.003235  -0.000001   0.000003
     7  H    0.000000  -0.000000   0.000314  -0.000146  -0.000032   0.000176
     8  H    0.000000  -0.000000  -0.000002   0.000001  -0.000000   0.000003
     9  H   -0.000009   0.000000  -0.000000  -0.000000   0.000000  -0.000000
    10  C    0.002008   0.000912  -0.000000  -0.000009   0.000000   0.000000
    11  C    0.000003   0.000003  -0.000009  -0.017356  -0.000003   0.000000
    12  C    0.000949   0.002237   0.000000  -0.000003  -0.000000  -0.000000
    13  C   -0.036350   0.003968   0.000000   0.000000  -0.000000   0.000000
    14  C    0.004050  -0.036952   0.000000   0.000000   0.000000   0.000000
    15  C    0.368735  -0.035952  -0.000000  -0.000000  -0.000000  -0.000000
    16  H   -0.004206  -0.000149   0.000000   0.000000  -0.000000   0.000000
    17  C   -0.036162   0.368286   0.000000  -0.000000  -0.000000   0.000000
    18  H   -0.000150  -0.004283   0.000000   0.000000  -0.000000   0.000000
    19  H    0.536123  -0.004545   0.000000   0.000000   0.000000  -0.000000
    20  H   -0.004545   0.537843   0.000000   0.000000   0.000000  -0.000000
    21  C    0.000000   0.000000   4.639058  -0.073857   0.518743   0.532984
    22  C    0.000000   0.000000  -0.073857   4.818835  -0.056983   0.004924
    23  C    0.000000   0.000000   0.518743  -0.056983   4.656169  -0.056372
    24  C   -0.000000  -0.000000   0.532984   0.004924  -0.056372   5.022358
    25  C   -0.000000   0.000000  -0.049228   0.005849   0.531598  -0.044081
    26  C    0.000000   0.000000  -0.006190  -0.000082  -0.038323   0.513595
    27  H   -0.000000  -0.000000  -0.034847  -0.000158   0.003756   0.356036
    28  C    0.000000   0.000000  -0.039757  -0.000081  -0.007580  -0.035859
    29  H    0.000000   0.000000   0.003894  -0.000218  -0.038513   0.000271
    30  H    0.000000   0.000000   0.002008   0.000003   0.000949  -0.036350
    31  H    0.000000   0.000000   0.000912   0.000003   0.002237   0.003968
    32  N   -0.000000   0.000000   0.265329   0.352439  -0.041091  -0.076478
    33  N   -0.000000  -0.000000  -0.044652   0.315582   0.276191   0.009358
    34  N   -0.000091   0.000004   0.000000   0.000368   0.000000  -0.000000
    35  N    0.000004  -0.000098  -0.000000   0.000024   0.000000   0.000000
    36  C   -0.000000  -0.000002   0.000000   0.000019   0.000000   0.000000
    37  H   -0.000000  -0.000000  -0.000000  -0.000000  -0.000000   0.000000
    38  H   -0.000000  -0.000000  -0.000000  -0.000000  -0.000000   0.000000
    39  H   -0.000000  -0.000000   0.000000  -0.000001  -0.000000   0.000000
    40  C    0.000000  -0.000000   0.005858  -0.043269  -0.047984  -0.000117
    41  H   -0.000000   0.000000  -0.000146   0.000677  -0.001383  -0.000009
    42  H   -0.000000   0.000000  -0.000146   0.000680  -0.001386  -0.000009
    43  H    0.000000   0.000000   0.000016  -0.000265   0.002653   0.000006
    44  Co   0.000017  -0.000006   0.007797   0.365595   0.005094  -0.000503
              25         26         27         28         29         30
     1  C   -0.000000   0.000002  -0.000037   0.000000  -0.000000  -0.000000
     2  C   -0.000029   0.000070   0.000555  -0.000004   0.000002  -0.000002
     3  C    0.000002   0.000081  -0.000096  -0.000001  -0.000000   0.000002
     4  C   -0.000000  -0.000001   0.000124   0.000000   0.000000   0.000000
     5  C    0.000000   0.000000   0.000001  -0.000000   0.000000  -0.000000
     6  C   -0.000000  -0.000000   0.000001   0.000000   0.000000   0.000000
     7  H    0.000000   0.000126   0.006263   0.000001  -0.000000  -0.000009
     8  H    0.000000   0.000000  -0.000011  -0.000000  -0.000000   0.000000
     9  H   -0.000000  -0.000000  -0.000000   0.000000   0.000000   0.000000
    10  C    0.000000  -0.000000   0.000000   0.000000   0.000000   0.000000
    11  C    0.000000  -0.000000   0.000000  -0.000000   0.000000   0.000000
    12  C    0.000000  -0.000000  -0.000000  -0.000000  -0.000000   0.000000
    13  C    0.000000  -0.000000   0.000000   0.000000   0.000000  -0.000000
    14  C   -0.000000   0.000000  -0.000000  -0.000000   0.000000  -0.000000
    15  C    0.000000  -0.000000   0.000000   0.000000   0.000000   0.000000
    16  H   -0.000000   0.000000   0.000000   0.000000  -0.000000  -0.000000
    17  C   -0.000000   0.000000   0.000000   0.000000   0.000000   0.000000
    18  H    0.000000   0.000000  -0.000000   0.000000  -0.000000   0.000000
    19  H   -0.000000   0.000000  -0.000000   0.000000   0.000000   0.000000
    20  H    0.000000   0.000000  -0.000000   0.000000   0.000000   0.000000
    21  C   -0.049228  -0.006190  -0.034847  -0.039757   0.003894   0.002008
    22  C    0.005849  -0.000082  -0.000158  -0.000081  -0.000218   0.000003
    23  C    0.531598  -0.038323   0.003756  -0.007580  -0.038513   0.000949
    24  C   -0.044081   0.513595   0.356036  -0.035859   0.000271  -0.036350
    25  C    5.030844  -0.038717   0.000451   0.518663   0.362363   0.004050
    26  C   -0.038717   4.899576  -0.036656   0.554386   0.003979   0.368736
    27  H    0.000451  -0.036656   0.520608   0.003755   0.000014  -0.004206
    28  C    0.518663   0.554386   0.003755   4.891680  -0.036158  -0.036162
    29  H    0.362363   0.003979   0.000014  -0.036158   0.537817  -0.000150
    30  H    0.004050   0.368736  -0.004206  -0.036162  -0.000150   0.536123
    31  H   -0.036952  -0.035952  -0.000149   0.368286  -0.004283  -0.004545
    32  N    0.009130   0.005185  -0.004715  -0.000178  -0.000092  -0.000091
    33  N   -0.083714  -0.000134  -0.000100   0.005389  -0.007093   0.000004
    34  N    0.000000   0.000000   0.000000   0.000000  -0.000000  -0.000000
    35  N   -0.000000   0.000000   0.000000   0.000000  -0.000000  -0.000000
    36  C    0.000000  -0.000000   0.000000   0.000000  -0.000000   0.000000
    37  H    0.000000  -0.000000   0.000000  -0.000000  -0.000000  -0.000000
    38  H    0.000000  -0.000000   0.000000  -0.000000  -0.000000  -0.000000
    39  H    0.000000  -0.000000   0.000000  -0.000000   0.000000   0.000000
    40  C   -0.002862   0.000009   0.000003  -0.000116   0.004059  -0.000000
    41  H    0.002764  -0.000002  -0.000000  -0.000006   0.000541  -0.000000
    42  H    0.002766  -0.000002  -0.000000  -0.000005   0.000542  -0.000000
    43  H    0.000031  -0.000000  -0.000000   0.000001  -0.000034  -0.000000
    44  Co  -0.000435  -0.000007   0.000063  -0.000002   0.000016   0.000017
              31         32         33         34         35         36
     1  C   -0.000000  -0.034181   0.001277  -0.034181   0.001277  -0.000016
     2  C   -0.000000   0.256245   0.006443   0.007000  -0.000049   0.000000
     3  C   -0.000000  -0.065876  -0.000160   0.000800   0.000000  -0.000000
     4  C   -0.000000   0.003979   0.000001   0.003979   0.000001  -0.000000
     5  C    0.000000   0.000800   0.000000  -0.065876  -0.000160   0.000002
     6  C   -0.000000   0.007000  -0.000049   0.256245   0.006443  -0.000050
     7  H    0.000000  -0.004638   0.000002   0.000007  -0.000000  -0.000000
     8  H   -0.000000  -0.000099  -0.000000  -0.000099  -0.000000   0.000000
     9  H   -0.000000   0.000007  -0.000000  -0.004638   0.000002  -0.000000
    10  C    0.000000   0.000000  -0.000000   0.265329  -0.044652   0.005858
    11  C    0.000000   0.000368   0.000024   0.352439   0.315582  -0.043269
    12  C    0.000000   0.000000   0.000000  -0.041091   0.276190  -0.047984
    13  C   -0.000000  -0.000000   0.000000  -0.076478   0.009358  -0.000117
    14  C    0.000000   0.000000  -0.000000   0.009130  -0.083714  -0.002862
    15  C    0.000000   0.000000   0.000000   0.005185  -0.000134   0.000009
    16  H   -0.000000   0.000000   0.000000  -0.004715  -0.000100   0.000003
    17  C    0.000000   0.000000   0.000000  -0.000178   0.005389  -0.000116
    18  H    0.000000  -0.000000  -0.000000  -0.000092  -0.007093   0.004059
    19  H    0.000000  -0.000000  -0.000000  -0.000091   0.000004  -0.000000
    20  H    0.000000   0.000000  -0.000000   0.000004  -0.000098  -0.000002
    21  C    0.000912   0.265329  -0.044652   0.000000  -0.000000   0.000000
    22  C    0.000003   0.352439   0.315582   0.000368   0.000024   0.000019
    23  C    0.002237  -0.041091   0.276191   0.000000   0.000000   0.000000
    24  C    0.003968  -0.076478   0.009358  -0.000000   0.000000   0.000000
    25  C   -0.036952   0.009130  -0.083714   0.000000  -0.000000   0.000000
    26  C   -0.035952   0.005185  -0.000134   0.000000   0.000000  -0.000000
    27  H   -0.000149  -0.004715  -0.000100   0.000000   0.000000   0.000000
    28  C    0.368286  -0.000178   0.005389   0.000000   0.000000   0.000000
    29  H   -0.004283  -0.000092  -0.007093  -0.000000  -0.000000  -0.000000
    30  H   -0.004545  -0.000091   0.000004  -0.000000  -0.000000   0.000000
    31  H    0.537843   0.000004  -0.000098   0.000000  -0.000000  -0.000000
    32  N    0.000004   7.185426  -0.060930  -0.000185   0.000001  -0.000000
    33  N   -0.000098  -0.060930   7.057075   0.000001  -0.000000  -0.000000
    34  N    0.000000  -0.000185   0.000001   7.185425  -0.060930   0.004980
    35  N   -0.000000   0.000001  -0.000000  -0.060930   7.057076   0.297915
    36  C   -0.000000  -0.000000  -0.000000   0.004980   0.297915   5.048736
    37  H    0.000000   0.000000  -0.000000  -0.000069  -0.041955   0.378075
    38  H    0.000000   0.000000  -0.000000  -0.000069  -0.041960   0.378079
    39  H    0.000000  -0.000000   0.000001   0.000141  -0.032628   0.377481
    40  C   -0.000002   0.004980   0.297915  -0.000000  -0.000000   0.000000
    41  H   -0.000000  -0.000069  -0.041960   0.000000  -0.000000  -0.000000
    42  H   -0.000000  -0.000069  -0.041954   0.000000  -0.000000  -0.000000
    43  H   -0.000000   0.000141  -0.032628  -0.000000   0.000001  -0.000001
    44  Co  -0.000006  -0.083454  -0.052862  -0.083454  -0.052862  -0.003018
              37         38         39         40         41         42
     1  C   -0.000000  -0.000000  -0.000023  -0.000016  -0.000000  -0.000000
     2  C   -0.000000  -0.000000   0.000001  -0.000050   0.000004   0.000004
     3  C    0.000000   0.000000   0.000000   0.000002  -0.000000  -0.000000
     4  C    0.000000   0.000000  -0.000000  -0.000000   0.000000   0.000000
     5  C   -0.000000  -0.000000  -0.000000  -0.000000   0.000000   0.000000
     6  C    0.000004   0.000004  -0.000015   0.000000  -0.000000  -0.000000
     7  H    0.000000   0.000000   0.000000  -0.000000  -0.000000  -0.000000
     8  H   -0.000000  -0.000000   0.000000   0.000000  -0.000000  -0.000000
     9  H   -0.000000  -0.000000   0.000000  -0.000000   0.000000   0.000000
    10  C   -0.000146  -0.000146   0.000016   0.000000  -0.000000  -0.000000
    11  C    0.000680   0.000676  -0.000265   0.000019  -0.000000  -0.000000
    12  C   -0.001386  -0.001383   0.002653   0.000000  -0.000000  -0.000000
    13  C   -0.000009  -0.000009   0.000006   0.000000   0.000000   0.000000
    14  C    0.002766   0.002764   0.000031   0.000000   0.000000   0.000000
    15  C   -0.000002  -0.000002  -0.000000  -0.000000  -0.000000  -0.000000
    16  H   -0.000000  -0.000000  -0.000000   0.000000   0.000000   0.000000
    17  C   -0.000005  -0.000006   0.000001   0.000000  -0.000000  -0.000000
    18  H    0.000542   0.000541  -0.000034  -0.000000  -0.000000  -0.000000
    19  H   -0.000000  -0.000000  -0.000000   0.000000  -0.000000  -0.000000
    20  H   -0.000000  -0.000000  -0.000000  -0.000000   0.000000   0.000000
    21  C   -0.000000  -0.000000   0.000000   0.005858  -0.000146  -0.000146
    22  C   -0.000000  -0.000000  -0.000001  -0.043269   0.000677   0.000680
    23  C   -0.000000  -0.000000  -0.000000  -0.047984  -0.001383  -0.001386
    24  C    0.000000   0.000000   0.000000  -0.000117  -0.000009  -0.000009
    25  C    0.000000   0.000000   0.000000  -0.002862   0.002764   0.002766
    26  C   -0.000000  -0.000000  -0.000000   0.000009  -0.000002  -0.000002
    27  H    0.000000   0.000000   0.000000   0.000003  -0.000000  -0.000000
    28  C   -0.000000  -0.000000  -0.000000  -0.000116  -0.000006  -0.000005
    29  H   -0.000000  -0.000000   0.000000   0.004059   0.000541   0.000542
    30  H   -0.000000  -0.000000   0.000000  -0.000000  -0.000000  -0.000000
    31  H    0.000000   0.000000   0.000000  -0.000002  -0.000000  -0.000000
    32  N    0.000000   0.000000  -0.000000   0.004980  -0.000069  -0.000069
    33  N   -0.000000  -0.000000   0.000001   0.297915  -0.041960  -0.041954
    34  N   -0.000069  -0.000069   0.000141  -0.000000   0.000000   0.000000
    35  N   -0.041955  -0.041960  -0.032628  -0.000000  -0.000000  -0.000000
    36  C    0.378075   0.378079   0.377481   0.000000  -0.000000  -0.000000
    37  H    0.523279  -0.040350  -0.025032  -0.000000  -0.000000   0.000000
    38  H   -0.040350   0.523281  -0.025041  -0.000000   0.000000  -0.000000
    39  H   -0.025032  -0.025041   0.481430  -0.000001   0.000000   0.000000
    40  C   -0.000000  -0.000000  -0.000001   5.048736   0.378079   0.378075
    41  H   -0.000000   0.000000   0.000000   0.378079   0.523282  -0.040350
    42  H    0.000000  -0.000000   0.000000   0.378075  -0.040350   0.523280
    43  H    0.000000   0.000000  -0.000024   0.377481  -0.025041  -0.025032
    44  Co   0.001008   0.001012   0.007169  -0.003018   0.001012   0.001008
              43         44
     1  C   -0.000023   0.267387
     2  C   -0.000015  -0.070511
     3  C   -0.000000   0.003131
     4  C   -0.000000   0.002755
     5  C    0.000000   0.003131
     6  C    0.000001  -0.070511
     7  H    0.000000  -0.000485
     8  H    0.000000   0.000179
     9  H    0.000000  -0.000485
    10  C    0.000000   0.007797
    11  C   -0.000001   0.365595
    12  C   -0.000000   0.005094
    13  C    0.000000  -0.000503
    14  C    0.000000  -0.000435
    15  C   -0.000000  -0.000007
    16  H    0.000000   0.000063
    17  C   -0.000000  -0.000002
    18  H    0.000000   0.000016
    19  H    0.000000   0.000017
    20  H    0.000000  -0.000006
    21  C    0.000016   0.007797
    22  C   -0.000265   0.365595
    23  C    0.002653   0.005094
    24  C    0.000006  -0.000503
    25  C    0.000031  -0.000435
    26  C   -0.000000  -0.000007
    27  H   -0.000000   0.000063
    28  C    0.000001  -0.000002
    29  H   -0.000034   0.000016
    30  H   -0.000000   0.000017
    31  H   -0.000000  -0.000006
    32  N    0.000141  -0.083454
    33  N   -0.032628  -0.052862
    34  N   -0.000000  -0.083454
    35  N    0.000001  -0.052862
    36  C   -0.000001  -0.003018
    37  H    0.000000   0.001008
    38  H    0.000000   0.001012
    39  H   -0.000024   0.007169
    40  C    0.377481  -0.003018
    41  H   -0.025041   0.001012
    42  H   -0.025032   0.001008
    43  H    0.481430   0.007169
    44  Co   0.007169  16.282093
          Atomic-Atomic Spin Densities.
               1          2          3          4          5          6
     1  C   -0.202764  -0.013488   0.003399   0.002613   0.003399  -0.013488
     2  C   -0.013488   0.115635   0.006741  -0.004372   0.000951   0.003908
     3  C    0.003399   0.006741  -0.083231  -0.006854   0.000787   0.000951
     4  C    0.002613  -0.004372  -0.006854   0.145915  -0.006854  -0.004372
     5  C    0.003399   0.000951   0.000787  -0.006854  -0.083231   0.006741
     6  C   -0.013488   0.003908   0.000951  -0.004372   0.006741   0.115635
     7  H   -0.000218  -0.000278   0.002183   0.000322   0.000026  -0.000072
     8  H   -0.000062   0.000017   0.000060  -0.000036   0.000060   0.000017
     9  H   -0.000218  -0.000072   0.000026   0.000322   0.002183  -0.000278
    10  C   -0.000175  -0.000021   0.000001   0.000014   0.000326  -0.000138
    11  C    0.004751  -0.000999  -0.000002   0.000032  -0.000204  -0.006300
    12  C    0.000033   0.000000  -0.000000  -0.000000  -0.000009   0.000044
    13  C    0.000021  -0.000000  -0.000000   0.000007  -0.000214  -0.000371
    14  C    0.000001   0.000000  -0.000000   0.000000  -0.000001  -0.000018
    15  C   -0.000000   0.000000   0.000000  -0.000000   0.000003   0.000010
    16  H   -0.000001  -0.000000  -0.000000   0.000001   0.000042   0.000043
    17  C   -0.000000  -0.000000   0.000000  -0.000000   0.000000   0.000001
    18  H    0.000000   0.000000  -0.000000   0.000000   0.000000   0.000000
    19  H    0.000000   0.000000  -0.000000  -0.000000  -0.000000   0.000000
    20  H    0.000000   0.000000  -0.000000  -0.000000  -0.000000  -0.000000
    21  C   -0.000175  -0.000137   0.000326   0.000014   0.000001  -0.000021
    22  C    0.004751  -0.006300  -0.000204   0.000032  -0.000002  -0.000999
    23  C    0.000033   0.000044  -0.000009  -0.000000  -0.000000   0.000000
    24  C    0.000021  -0.000371  -0.000214   0.000007  -0.000000  -0.000000
    25  C    0.000001  -0.000018  -0.000001   0.000000  -0.000000   0.000000
    26  C   -0.000000   0.000010   0.000003  -0.000000   0.000000   0.000000
    27  H   -0.000001   0.000043   0.000042   0.000001  -0.000000  -0.000000
    28  C   -0.000000   0.000001   0.000000  -0.000000   0.000000  -0.000000
    29  H    0.000000   0.000000   0.000000   0.000000  -0.000000   0.000000
    30  H    0.000000   0.000000  -0.000000  -0.000000  -0.000000   0.000000
    31  H    0.000000  -0.000000  -0.000000  -0.000000  -0.000000   0.000000
    32  N    0.000615   0.012169   0.002804  -0.000009   0.000024  -0.000044
    33  N   -0.000550   0.000388  -0.000008  -0.000000  -0.000000   0.000004
    34  N    0.000615  -0.000044   0.000024  -0.000009   0.002804   0.012169
    35  N   -0.000550   0.000004  -0.000000  -0.000000  -0.000008   0.000388
    36  C   -0.000011   0.000000  -0.000000  -0.000000  -0.000000  -0.000006
    37  H    0.000001  -0.000000  -0.000000   0.000000  -0.000000  -0.000001
    38  H    0.000001  -0.000000  -0.000000   0.000000  -0.000000  -0.000001
    39  H    0.000011   0.000000   0.000000   0.000000   0.000000   0.000000
    40  C   -0.000011  -0.000006  -0.000000  -0.000000  -0.000000   0.000000
    41  H    0.000001  -0.000001  -0.000000   0.000000  -0.000000  -0.000000
    42  H    0.000001  -0.000001  -0.000000   0.000000  -0.000000  -0.000000
    43  H    0.000011   0.000000   0.000000   0.000000   0.000000   0.000000
    44  Co   0.033176  -0.012440  -0.001732   0.001727  -0.001732  -0.012440
               7          8          9         10         11         12
     1  C   -0.000218  -0.000062  -0.000218  -0.000175   0.004751   0.000033
     2  C   -0.000278   0.000017  -0.000072  -0.000021  -0.000999   0.000000
     3  C    0.002183   0.000060   0.000026   0.000001  -0.000002  -0.000000
     4  C    0.000322  -0.000036   0.000322   0.000014   0.000032  -0.000000
     5  C    0.000026   0.000060   0.002183   0.000326  -0.000204  -0.000009
     6  C   -0.000072   0.000017  -0.000278  -0.000138  -0.006300   0.000044
     7  H   -0.001109  -0.000007  -0.000009  -0.000000   0.000000   0.000000
     8  H   -0.000007  -0.006757  -0.000007  -0.000000   0.000000   0.000000
     9  H   -0.000009  -0.000007  -0.001109  -0.000055   0.000013   0.000001
    10  C   -0.000000  -0.000000  -0.000055  -0.007189   0.001332  -0.001942
    11  C    0.000000   0.000000   0.000013   0.001332   0.191314  -0.001248
    12  C    0.000000   0.000000   0.000001  -0.001942  -0.001248  -0.026346
    13  C    0.000000   0.000000   0.000060   0.003860   0.000306   0.000593
    14  C    0.000000   0.000000   0.000000   0.000767   0.000519   0.000671
    15  C    0.000000   0.000000   0.000004  -0.000701  -0.000027   0.000175
    16  H   -0.000000  -0.000000  -0.000104  -0.000149  -0.000001  -0.000007
    17  C   -0.000000  -0.000000  -0.000000   0.000125  -0.000016  -0.000275
    18  H   -0.000000  -0.000000  -0.000000  -0.000009  -0.000002  -0.000068
    19  H   -0.000000  -0.000000  -0.000000   0.000003  -0.000000  -0.000007
    20  H    0.000000   0.000000   0.000000  -0.000006  -0.000000   0.000013
    21  C   -0.000055  -0.000000  -0.000000  -0.000000   0.000001  -0.000000
    22  C    0.000013   0.000000   0.000000   0.000001   0.001949   0.000000
    23  C    0.000001   0.000000   0.000000  -0.000000   0.000000   0.000000
    24  C    0.000060   0.000000   0.000000   0.000000   0.000000   0.000000
    25  C    0.000000   0.000000   0.000000   0.000000   0.000000   0.000000
    26  C    0.000004   0.000000   0.000000   0.000000  -0.000000  -0.000000
    27  H   -0.000104  -0.000000  -0.000000  -0.000000   0.000000   0.000000
    28  C   -0.000000  -0.000000  -0.000000  -0.000000  -0.000000   0.000000
    29  H   -0.000000  -0.000000  -0.000000   0.000000  -0.000000  -0.000000
    30  H   -0.000000  -0.000000  -0.000000  -0.000000  -0.000000   0.000000
    31  H    0.000000   0.000000   0.000000   0.000000  -0.000000  -0.000000
    32  N   -0.000265  -0.000000  -0.000001  -0.000000  -0.000042  -0.000000
    33  N    0.000001   0.000000   0.000000   0.000000  -0.000005   0.000000
    34  N   -0.000001  -0.000000  -0.000265  -0.000273  -0.030862   0.001403
    35  N    0.000000   0.000000   0.000001  -0.000519  -0.042765   0.005662
    36  C    0.000000   0.000000   0.000000  -0.000034   0.000587   0.000332
    37  H   -0.000000  -0.000000  -0.000000   0.000002   0.000427  -0.000113
    38  H   -0.000000  -0.000000  -0.000000   0.000003   0.000428  -0.000113
    39  H   -0.000000  -0.000000  -0.000000  -0.000000  -0.000514  -0.000046
    40  C    0.000000   0.000000   0.000000   0.000000  -0.000001  -0.000000
    41  H   -0.000000  -0.000000  -0.000000   0.000000   0.000000  -0.000000
    42  H   -0.000000  -0.000000  -0.000000   0.000000   0.000000   0.000000
    43  H   -0.000000  -0.000000  -0.000000  -0.000000   0.000002   0.000000
    44  Co   0.000243   0.000015   0.000243   0.001117   0.060487   0.000219
              13         14         15         16         17         18
     1  C    0.000021   0.000001  -0.000000  -0.000001  -0.000000   0.000000
     2  C   -0.000000   0.000000   0.000000  -0.000000  -0.000000   0.000000
     3  C   -0.000000  -0.000000   0.000000  -0.000000   0.000000  -0.000000
     4  C    0.000007   0.000000  -0.000000   0.000001  -0.000000   0.000000
     5  C   -0.000214  -0.000001   0.000003   0.000042   0.000000   0.000000
     6  C   -0.000371  -0.000018   0.000010   0.000043   0.000001   0.000000
     7  H    0.000000   0.000000   0.000000  -0.000000  -0.000000  -0.000000
     8  H    0.000000   0.000000   0.000000  -0.000000  -0.000000  -0.000000
     9  H    0.000060   0.000000   0.000004  -0.000104  -0.000000  -0.000000
    10  C    0.003860   0.000767  -0.000701  -0.000149   0.000125  -0.000009
    11  C    0.000306   0.000519  -0.000027  -0.000001  -0.000016  -0.000002
    12  C    0.000593   0.000671   0.000175  -0.000007  -0.000275  -0.000068
    13  C    0.025268   0.001049  -0.009836   0.000192  -0.001379  -0.000006
    14  C    0.001049   0.049867  -0.002123  -0.000003  -0.007839   0.000071
    15  C   -0.009836  -0.002123   0.026621   0.000005   0.006535  -0.000004
[...]
              Bcc     0.0128     6.807     2.429     2.271 -0.6289  0.7775  0.0001
 
              Baa    -0.0053    -0.711    -0.254    -0.237 -0.0000 -0.0001  1.0000
    40 C(13)  Bbb    -0.0033    -0.437    -0.156    -0.146 -0.6482  0.7615  0.0000
              Bcc     0.0086     1.148     0.410     0.383  0.7615  0.6482  0.0001
 
              Baa    -0.0038    -2.032    -0.725    -0.678 -0.0410  0.3519  0.9352
    41 H(1)   Bbb    -0.0024    -1.287    -0.459    -0.429 -0.6726  0.6824 -0.2863
              Bcc     0.0062     3.319     1.184     1.107  0.7389  0.6407 -0.2087
 
              Baa    -0.0038    -2.031    -0.725    -0.678  0.0410 -0.3518  0.9352
    42 H(1)   Bbb    -0.0024    -1.287    -0.459    -0.429 -0.6726  0.6824  0.2862
              Bcc     0.0062     3.318     1.184     1.107  0.7389  0.6407  0.2086
 
              Baa    -0.0070    -3.728    -1.330    -1.244  0.0000 -0.0001  1.0000
    43 H(1)   Bbb    -0.0058    -3.079    -1.099    -1.027  0.7775 -0.6288 -0.0001
              Bcc     0.0128     6.807     2.429     2.271  0.6288  0.7775  0.0001
 
              Baa    -1.4435  -182.290   -65.045   -60.805  1.0000 -0.0000  0.0000
    44 Co(59) Bbb     0.2458    31.036    11.074    10.352  0.0000  1.0000 -0.0001
              Bcc     1.1978   151.253    53.971    50.453 -0.0000  0.0001  1.0000
 

 ---------------------------------------------------------------------------------

   1 Symmetry operations used in ECPInt.
 ECPInt:  NShTT=   11781 NPrTT=   71406 LenC2=    9560 LenP2D=   32154.
 LDataN:  DoStor=T MaxTD1= 7 Len=  274
 Calling FoFJK, ICntrl=      2127 FMM=F ISym2X=0 I1Cent= 0 IOpClX= 1 NMat=1 NMatS=1 NMatT=0.
 -------------------------------------------------------------------
 Center     Atomic                   Forces (Hartrees/Bohr)
 Number     Number              X              Y              Z
 -------------------------------------------------------------------
      1        6          -0.000000403    0.000115628   -0.000002546
      2        6           0.000047025   -0.000026924   -0.000000146
      3        6           0.000015232    0.000075647    0.000000420
      4        6          -0.000000202   -0.000093790   -0.000000004
      5        6          -0.000014856    0.000075412    0.000000229
      6        6          -0.000047122   -0.000027207    0.000000871
      7        1          -0.000016645    0.000029091    0.000000064
      8        1          -0.000000052    0.000044711   -0.000000125
      9        1           0.000016587    0.000029151    0.000000001
     10        6          -0.000093578    0.000087965   -0.000000014
     11        6           0.000133733   -0.000191602    0.000000023
     12        6          -0.000039784   -0.000107272    0.000000934
     13        6           0.000054781    0.000001350   -0.000000625
     14        6           0.000028359    0.000037684    0.000000300
     15        6          -0.000061240    0.000012409    0.000000291
     16        1          -0.000008534    0.000034114   -0.000000007
     17        6          -0.000026175   -0.000039867   -0.000000236
     18        1           0.000009875   -0.000013177   -0.000000025
     19        1           0.000007608    0.000019650    0.000000055
     20        1           0.000015153   -0.000009779   -0.000000068
     21        6           0.000094080    0.000087621   -0.000001406
     22        6          -0.000134380   -0.000191585    0.000002625
     23        6           0.000039127   -0.000107971    0.000000715
     24        6          -0.000055564    0.000002035   -0.000000120
     25        6          -0.000027697    0.000038153    0.000000432
     26        6           0.000062015    0.000011950    0.000000150
     27        1           0.000008550    0.000033930   -0.000000091
     28        6           0.000024883   -0.000039928   -0.000000261
     29        1          -0.000009869   -0.000013414   -0.000000057
     30        1          -0.000007991    0.000020102    0.000000074
     31        1          -0.000014327   -0.000009645   -0.000000058
     32        7           0.000003295   -0.000134412    0.000001193
     33        7           0.000098628    0.000135333    0.000000123
     34        7          -0.000002494   -0.000133579   -0.000001108
     35        7          -0.000098265    0.000133905    0.000002023
     36        6          -0.000025469   -0.000014931   -0.000000783
     37        1           0.000016176   -0.000016484   -0.000011998
     38        1           0.000016426   -0.000016294    0.000012021
     39        1          -0.000011388   -0.000009075    0.000000073
     40        6           0.000024857   -0.000015801   -0.000000432
     41        1          -0.000016271   -0.000016112    0.000011774
     42        1          -0.000016145   -0.000016404   -0.000011928
     43        1           0.000011677   -0.000009081    0.000000169
     44       27           0.000000383    0.000228492   -0.000002525
 -------------------------------------------------------------------
 Cartesian Forces:  Max     0.000228492 RMS     0.000054283

 GradGradGradGradGradGradGradGradGradGradGradGradGradGradGradGradGradGrad
 Berny optimization.
 Search for a local minimum.
 Step number   1 out of a maximum of    2
 All quantities printed in internal units (Hartrees-Bohrs-Radians)
 Second derivative matrix not updated -- first step.
 ITU=  0
     Eigenvalues ---    0.00052   0.00061   0.00196   0.00239   0.00245
     Eigenvalues ---    0.00369   0.00438   0.00602   0.00613   0.00616
     Eigenvalues ---    0.00670   0.00844   0.00852   0.01302   0.01594
     Eigenvalues ---    0.01833   0.01953   0.02042   0.02540   0.02546
     Eigenvalues ---    0.03032   0.03231   0.04052   0.04151   0.04312
     Eigenvalues ---    0.04499   0.04701   0.05393   0.05509   0.05938
     Eigenvalues ---    0.06278   0.06929   0.06962   0.07033   0.07051
     Eigenvalues ---    0.07058   0.07321   0.07686   0.07755   0.09667
     Eigenvalues ---    0.09814   0.10493   0.10540   0.11487   0.11947
     Eigenvalues ---    0.12020   0.12335   0.12489   0.12779   0.13403
     Eigenvalues ---    0.13427   0.13518   0.13692   0.14878   0.15719
     Eigenvalues ---    0.15759   0.15893   0.19456   0.20264   0.20662
     Eigenvalues ---    0.21577   0.22563   0.23965   0.24669   0.28966
     Eigenvalues ---    0.29895   0.30233   0.30801   0.31601   0.31642
     Eigenvalues ---    0.33060   0.34641   0.36475   0.37139   0.37224
     Eigenvalues ---    0.39155   0.41298   0.43079   0.46169   0.46553
     Eigenvalues ---    0.48830   0.49052   0.49390   0.52673   0.53139
     Eigenvalues ---    0.53418   0.54584   0.55453   0.64492   0.68460
     Eigenvalues ---    0.71749   0.73681   0.75065   0.79527   0.85596
     Eigenvalues ---    0.91191   0.92385   0.92622   0.94504   0.95713
     Eigenvalues ---    0.95886   0.97787   1.04135   1.06237   1.14436
     Eigenvalues ---    1.16347   1.17845   1.18541   1.22024   1.27642
     Eigenvalues ---    1.33731   1.38562   1.38570   1.46548   1.48098
     Eigenvalues ---    1.50165   1.53569   1.55878   1.61550   1.65161
     Eigenvalues ---    1.67195   1.68057   1.74094   1.76449   1.80309
     Eigenvalues ---    1.82006
 Angle between quadratic step and forces=  75.90 degrees.
 Linear search not attempted -- first point.
 B after Tr=     0.000000    0.000043   -0.000002
         Rot=    1.000000    0.000000   -0.000000   -0.000000 Ang=   0.00 deg.
 Variable       Old X    -DE/DX   Delta X   Delta X   Delta X     New X
                                 (Linear)    (Quad)   (Total)
    X1        0.00000  -0.00000   0.00000  -0.00000  -0.00000   0.00000
    Y1        1.28504   0.00012   0.00000   0.00089   0.00094   1.28598
    Z1        0.00015  -0.00000   0.00000  -0.00004  -0.00004   0.00011
    X2       -2.29870   0.00005   0.00000   0.00003   0.00003  -2.29867
    Y2        2.56426  -0.00003   0.00000   0.00053   0.00058   2.56484
    Z2        0.00007  -0.00000   0.00000  -0.00001  -0.00001   0.00005
    X3       -2.32729   0.00002   0.00000  -0.00009  -0.00009  -2.32738
    Y3        5.19395   0.00008   0.00000   0.00070   0.00075   5.19470
    Z3       -0.00000   0.00000   0.00000   0.00001   0.00001   0.00001
    X4        0.00000  -0.00000   0.00000  -0.00000  -0.00000   0.00000
    Y4        6.45542  -0.00009   0.00000   0.00053   0.00057   6.45600
    Z4        0.00002  -0.00000   0.00000   0.00001   0.00000   0.00003
    X5        2.32729  -0.00001   0.00000   0.00009   0.00009   2.32738
    Y5        5.19395   0.00008   0.00000   0.00070   0.00075   5.19470
    Z5        0.00010   0.00000   0.00000  -0.00001  -0.00002   0.00008
    X6        2.29870  -0.00005   0.00000  -0.00003  -0.00003   2.29868
    Y6        2.56427  -0.00003   0.00000   0.00053   0.00058   2.56484
    Z6        0.00015   0.00000   0.00000  -0.00003  -0.00004   0.00011
    X7       -4.06545  -0.00002   0.00000  -0.00003  -0.00003  -4.06548
    Y7        6.27791   0.00003   0.00000   0.00095   0.00099   6.27890
    Z7       -0.00009   0.00000   0.00000   0.00004   0.00003  -0.00005
    X8        0.00000  -0.00000   0.00000  -0.00000  -0.00000  -0.00000
    Y8        8.50806   0.00004   0.00000   0.00066   0.00070   8.50876
    Z8       -0.00002  -0.00000   0.00000   0.00002   0.00001  -0.00001
    X9        4.06545   0.00002   0.00000   0.00003   0.00003   4.06548
    Y9        6.27791   0.00003   0.00000   0.00095   0.00100   6.27891
    Z9        0.00010   0.00000   0.00000  -0.00001  -0.00001   0.00008
   X10        6.91239  -0.00009   0.00000  -0.00059  -0.00059   6.91180
   Y10        1.08823   0.00009   0.00000  -0.00012  -0.00007   1.08816
   Z10       -0.00004  -0.00000   0.00000  -0.00002  -0.00002  -0.00006
   X11        3.57303   0.00013   0.00000  -0.00032  -0.00032   3.57271
   Y11       -1.69431  -0.00019   0.00000  -0.00015  -0.00010  -1.69441
   Z11        0.00017   0.00000   0.00000  -0.00003  -0.00003   0.00014
   X12        7.86688  -0.00004   0.00000  -0.00070  -0.00070   7.86618
   Y12       -1.39760  -0.00011   0.00000  -0.00037  -0.00033  -1.39793
   Z12       -0.00019   0.00000   0.00000   0.00002   0.00001  -0.00018
   X13        8.54678   0.00005   0.00000  -0.00058  -0.00058   8.54620
   Y13        3.14411   0.00000   0.00000  -0.00006  -0.00001   3.14409
   Z13       -0.00010  -0.00000   0.00000  -0.00003  -0.00003  -0.00013
   X14       10.44383   0.00003   0.00000  -0.00065  -0.00065  10.44318
   Y14       -1.89290   0.00004   0.00000  -0.00030  -0.00025  -1.89316
   Z14       -0.00039   0.00000   0.00000   0.00005   0.00005  -0.00034
   X15       11.13914  -0.00006   0.00000  -0.00070  -0.00070  11.13844
   Y15        2.64662   0.00001   0.00000  -0.00019  -0.00014   2.64648
   Z15       -0.00032   0.00000   0.00000   0.00001   0.00001  -0.00031
   X16        7.85935  -0.00001   0.00000  -0.00053  -0.00053   7.85882
   Y16        5.07161   0.00003   0.00000   0.00007   0.00011   5.07172
   Z16        0.00003  -0.00000   0.00000  -0.00006  -0.00006  -0.00004
   X17       12.07411  -0.00003   0.00000  -0.00074  -0.00074  12.07336
   Y17        0.18060  -0.00004   0.00000  -0.00029  -0.00025   0.18036
   Z17       -0.00046  -0.00000   0.00000   0.00005   0.00004  -0.00041
   X18       11.16277   0.00001   0.00000  -0.00053  -0.00053  11.16225
   Y18       -3.81435  -0.00001   0.00000  -0.00030  -0.00025  -3.81460
   Z18       -0.00047  -0.00000   0.00000   0.00008   0.00008  -0.00040
   X19       12.45232   0.00001   0.00000  -0.00066  -0.00066  12.45166
   Y19        4.22346   0.00002   0.00000  -0.00014  -0.00010   4.22336
   Z19       -0.00037   0.00000   0.00000   0.00001   0.00001  -0.00036
   X20       14.10174   0.00002   0.00000  -0.00071  -0.00071  14.10102
   Y20       -0.13437  -0.00001   0.00000  -0.00039  -0.00035  -0.13472
   Z20       -0.00061  -0.00000   0.00000   0.00007   0.00007  -0.00054
   X21       -6.91238   0.00009   0.00000   0.00059   0.00059  -6.91179
   Y21        1.08823   0.00009   0.00000  -0.00012  -0.00008   1.08815
   Z21       -0.00006  -0.00000   0.00000   0.00000  -0.00000  -0.00006
   X22       -3.57302  -0.00013   0.00000   0.00033   0.00033  -3.57269
   Y22       -1.69431  -0.00019   0.00000  -0.00015  -0.00010  -1.69441
   Z22        0.00006   0.00000   0.00000  -0.00000  -0.00001   0.00006
   X23       -7.86687   0.00004   0.00000   0.00070   0.00070  -7.86617
   Y23       -1.39761  -0.00011   0.00000  -0.00037  -0.00033  -1.39794
   Z23       -0.00012   0.00000   0.00000   0.00002   0.00002  -0.00010
   X24       -8.54678  -0.00006   0.00000   0.00058   0.00058  -8.54620
   Y24        3.14409   0.00000   0.00000  -0.00006  -0.00001   3.14408
   Z24       -0.00009  -0.00000   0.00000  -0.00000  -0.00000  -0.00010
   X25      -10.44382  -0.00003   0.00000   0.00065   0.00065 -10.44317
   Y25       -1.89292   0.00004   0.00000  -0.00030  -0.00025  -1.89317
   Z25       -0.00020   0.00000   0.00000   0.00003   0.00003  -0.00016
   X26      -11.13913   0.00006   0.00000   0.00070   0.00070 -11.13843
   Y26        2.64660   0.00001   0.00000  -0.00018  -0.00014   2.64646
   Z26       -0.00018   0.00000   0.00000   0.00002   0.00001  -0.00017
   X27       -7.85935   0.00001   0.00000   0.00053   0.00053  -7.85882
   Y27        5.07161   0.00003   0.00000   0.00007   0.00011   5.07171
   Z27       -0.00004  -0.00000   0.00000  -0.00002  -0.00002  -0.00006
   X28      -12.07410   0.00002   0.00000   0.00074   0.00074 -12.07336
   Y28        0.18059  -0.00004   0.00000  -0.00029  -0.00025   0.18034
   Z28       -0.00023  -0.00000   0.00000   0.00003   0.00003  -0.00020
   X29      -11.16276  -0.00001   0.00000   0.00053   0.00053 -11.16223
   Y29       -3.81436  -0.00001   0.00000  -0.00030  -0.00025  -3.81462
   Z29       -0.00021  -0.00000   0.00000   0.00004   0.00004  -0.00017
   X30      -12.45231  -0.00001   0.00000   0.00066   0.00066 -12.45165
   Y30        4.22344   0.00002   0.00000  -0.00014  -0.00010   4.22334
   Z30       -0.00021   0.00000   0.00000   0.00002   0.00002  -0.00019
   X31      -14.10173  -0.00001   0.00000   0.00071   0.00071 -14.10101
   Y31       -0.13439  -0.00001   0.00000  -0.00039  -0.00035  -0.13474
   Z31       -0.00028  -0.00000   0.00000   0.00004   0.00004  -0.00024
   X32       -4.30984   0.00000   0.00000   0.00041   0.00041  -4.30943
   Y32        0.84200  -0.00013   0.00000  -0.00014  -0.00010   0.84190
   Z32        0.00002   0.00000   0.00000   0.00000  -0.00000   0.00002
   X33       -5.80633   0.00010   0.00000   0.00073   0.00073  -5.80560
   Y33       -3.00497   0.00014   0.00000  -0.00026  -0.00021  -3.00518
   Z33       -0.00007   0.00000   0.00000   0.00000  -0.00000  -0.00007
   X34        4.30985  -0.00000   0.00000  -0.00041  -0.00041   4.30943
   Y34        0.84201  -0.00013   0.00000  -0.00014  -0.00010   0.84191
   Z34        0.00017  -0.00000   0.00000  -0.00004  -0.00004   0.00013
   X35        5.80634  -0.00010   0.00000  -0.00072  -0.00072   5.80562
   Y35       -3.00496   0.00013   0.00000  -0.00026  -0.00021  -3.00517
   Z35       -0.00009   0.00000   0.00000  -0.00000  -0.00000  -0.00009
   X36        5.99713  -0.00003   0.00000  -0.00106  -0.00106   5.99607
   Y36       -5.71275  -0.00001   0.00000  -0.00042  -0.00038  -5.71312
   Z36        0.00001  -0.00000   0.00000  -0.00000  -0.00001  -0.00000
   X37        6.99858   0.00002   0.00000  -0.00106  -0.00106   6.99752
   Y37       -6.38009  -0.00002   0.00000  -0.00068  -0.00063  -6.38072
   Z37       -1.68579  -0.00001   0.00000   0.00002   0.00001  -1.68577
   X38        6.99779   0.00002   0.00000  -0.00107  -0.00107   6.99672
   Y38       -6.38008  -0.00002   0.00000  -0.00068  -0.00064  -6.38072
   Z38        1.68627   0.00001   0.00000  -0.00002  -0.00002   1.68625
   X39        4.09254  -0.00001   0.00000  -0.00117  -0.00117   4.09137
   Y39       -6.50465  -0.00001   0.00000  -0.00026  -0.00022  -6.50486
   Z39       -0.00046   0.00000   0.00000  -0.00001  -0.00001  -0.00047
   X40       -5.99711   0.00002   0.00000   0.00106   0.00106  -5.99605
   Y40       -5.71275  -0.00002   0.00000  -0.00042  -0.00038  -5.71313
   Z40        0.00008  -0.00000   0.00000  -0.00002  -0.00002   0.00005
   X41       -6.99765  -0.00002   0.00000   0.00105   0.00105  -6.99660
   Y41       -6.38007  -0.00002   0.00000  -0.00069  -0.00064  -6.38071
   Z41        1.68642   0.00001   0.00000  -0.00005  -0.00005   1.68637
   X42       -6.99867  -0.00002   0.00000   0.00107   0.00107  -6.99760
   Y42       -6.38012  -0.00002   0.00000  -0.00067  -0.00062  -6.38074
   Z42       -1.68564  -0.00001   0.00000  -0.00002  -0.00002  -1.68565
   X43       -4.09253   0.00001   0.00000   0.00117   0.00117  -4.09135
   Y43       -6.50465  -0.00001   0.00000  -0.00026  -0.00022  -6.50487
   Z43       -0.00051   0.00000   0.00000  -0.00002  -0.00002  -0.00052
   X44        0.00000   0.00000   0.00000   0.00000   0.00000   0.00001
   Y44       -2.20955   0.00023   0.00000   0.00097   0.00101  -2.20855
   Z44        0.00025  -0.00000   0.00000  -0.00003  -0.00003   0.00022
         Item               Value     Threshold  Converged?
 Maximum Force            0.000228     0.000450     YES
 RMS     Force            0.000054     0.000300     YES
 Maximum Displacement     0.001171     0.001800     YES
 RMS     Displacement     0.000469     0.001200     YES
 Predicted change in Energy=-4.094823D-07
 Optimization completed.
    -- Stationary point found.
 GradGradGradGradGradGradGradGradGradGradGradGradGradGradGradGradGradGrad

 Unable to Open any file for archive entry.
 1\1\GINC-X11P1N5\Force\UPBE1PBE\GenECP\C22H17Co1N4(3)\MAYUMIAO\17-Jul-
 2024\0\\# pbe1pbe em=gd3bj genecp g09default scf=(xqc,maxcycle=64) for
 ce guess=read nosymm\\Title Card\\0,3\C,0.000002,0.680015,0.000082\C,-
 1.216419,1.35695,0.000036\C,-1.231548,2.74852,-0.000001\C,0.000001,3.4
 16063,0.000013\C,1.23155,2.748521,0.000051\C,1.216422,1.356951,0.00008
 \H,-2.151343,3.322127,-0.000045\H,0.000001,4.502271,-0.000011\H,2.1513
 45,3.322128,0.000051\C,3.657878,0.575868,-0.00002\C,1.890767,-0.896589
 ,0.00009\C,4.162974,-0.73958,-0.000102\C,4.522762,1.663789,-0.000051\C
 ,5.526638,-1.001681,-0.000206\C,5.894577,1.400531,-0.000168\H,4.158989
 ,2.683783,0.000014\C,6.389343,0.095571,-0.000241\H,5.907085,-2.018465,
 -0.000251\H,6.589482,2.234959,-0.000196\H,7.462317,-0.071107,-0.000322
 \C,-3.657875,0.575864,-0.000031\C,-1.890761,-0.89659,0.000034\C,-4.162
 968,-0.739585,-0.000064\C,-4.52276,1.663783,-0.000049\C,-5.526632,-1.0
 01689,-0.000104\C,-5.894575,1.400523,-0.000096\H,-4.158989,2.683778,-0
 .000021\C,-6.389338,0.095562,-0.000121\H,-5.907078,-2.018473,-0.000111
 \H,-6.589481,2.234949,-0.000109\H,-7.462313,-0.071118,-0.00015\N,-2.28
 0669,0.445569,0.000011\N,-3.072576,-1.590161,-0.000037\N,2.280672,0.44
 557,0.000092\N,3.072583,-1.590157,-0.000047\C,3.173546,-3.023055,0.000
 003\H,3.703487,-3.376196,-0.89208\H,3.703069,-3.376194,0.892338\H,2.16
 5681,-3.442111,-0.000241\C,-3.173536,-3.023058,0.000041\H,-3.702998,-3
 .376187,0.892417\H,-3.703537,-3.376213,-0.892001\H,-2.165671,-3.442113
 ,-0.000268\Co,0.000002,-1.169246,0.000131\\Version=ES64L-G16RevC.01\HF
 =-1212.1378528\S2=2.154404\S2-1=0.\S2A=2.003444\RMSD=4.710e-09\RMSF=5.
 428e-05\Dipole=0.0000086,-1.3206257,-0.0001172\Quadrupole=7.9876455,11
 .4513392,-19.4389846,-0.0000246,-0.0002919,0.0003049\PG=C01 [X(C22H17C
 o1N4)]\\@
 The archive entry for this job was punched.


       THE DEATH-KNELL OF THE ATOM

 SO THE ATOMS IN TURN, WE NOW CLEARLY DISCERN,
 FLY TO BITS WITH THE UTMOST FACILITY;
 THEY WEND ON THEIR WAY, AND, IN SPLITTING, DISPLAY
 AN ABSOLUTE LACK OF STABILITY.

          SIR WM. RAMSAY, 1905
 Job cpu time:       0 days  0 hours 10 minutes 29.8 seconds.
 Elapsed time:       0 days  0 hours  0 minutes 11.8 seconds.
 File lengths (MBytes):  RWF=    184 Int=      0 D2E=      0 Chk=     72 Scr=      1
 Normal termination of Gaussian 16 at Wed Jul 17 20:34:36 2024.
