 Entering Gaussian System, Link 0=g16
 Input=JOBS/10_A.gjf
 Output=JOBS/10_A.log
 Initial command:
 /data/app/gaussian/C01-avx2//g16/l1.exe "/tmp/Gau-2050982.inp" -scrdir="/tmp/"
 Entering Link 1 = /data/app/gaussian/C01-avx2//g16/l1.exe PID=   2050983.
  
 Copyright (c) 1988-2019, Gaussian, Inc.  All Rights Reserved.
  
 This is part of the Gaussian(R) 16 program.  It is based on
 the Gaussian(R) 09 system (copyright 2009, Gaussian, Inc.),
 the Gaussian(R) 03 system (copyright 2003, Gaussian, Inc.),
 the Gaussian(R) 98 system (copyright 1998, Gaussian, Inc.),
 the Gaussian(R) 94 system (copyright 1995, Gaussian, Inc.),
 the Gaussian 92(TM) system (copyright 1992, Gaussian, Inc.),
 the Gaussian 90(TM) system (copyright 1990, Gaussian, Inc.),
 the Gaussian 88(TM) system (copyright 1988, Gaussian, Inc.),
 the Gaussian 86(TM) system (copyright 1986, Carnegie Mellon
 University), and the Gaussian 82(TM) system (copyright 1983,
 Carnegie Mellon University). Gaussian is a federally registered
 trademark of Gaussian, Inc.
  
 This software contains proprietary and confidential information,
 including trade secrets, belonging to Gaussian, Inc.
  
 This software is provided under written license and may be
 used, copied, transmitted, or stored only in accord with that
 written license.
  
 The following legend is applicable only to US Government
 contracts under FAR:
  
                    RESTRICTED RIGHTS LEGEND
  
 Use, reproduction and disclosure by the US Government is
 subject to restrictions as set forth in subparagraphs (a)
 and (c) of the Commercial Computer Software - Restricted
 Rights clause in FAR 52.227-19.
  
 Gaussian, Inc.
 340 Quinnipiac St., Bldg. 40, Wallingford CT 06492
  
  
 ---------------------------------------------------------------
 Warning -- This program may not be used in any manner that
 competes with the business of Gaussian, Inc. or will provide
 assistance to any competitor of Gaussian, Inc.  The licensee
 of this program is prohibited from giving any competitor of
 Gaussian, Inc. access to this program.  By using this program,
 the user acknowledges that Gaussian, Inc. is engaged in the
 business of creating and licensing software in the field of
 computational chemistry and represents and warrants to the
 licensee that it is not a competitor of Gaussian, Inc. and that
 it will not use this program in any manner prohibited above.
 ---------------------------------------------------------------
  

 Cite this work as:
 Gaussian 16, Revision C.01,
 M. J. Frisch, G. W. Trucks, H. B. Schlegel, G. E. Scuseria, 
 M. A. Robb, J. R. Cheeseman, G. Scalmani, V. Barone, 
 G. A. Petersson, H. Nakatsuji, X. Li, M. Caricato, A. V. Marenich, 
 J. Bloino, B. G. Janesko, R. Gomperts, B. Mennucci, H. P. Hratchian, 
 J. V. Ortiz, A. F. Izmaylov, J. L. Sonnenberg, D. Williams-Young, 
 F. Ding, F. Lipparini, F. Egidi, J. Goings, B. Peng, A. Petrone, 
 T. Henderson, D. Ranasinghe, V. G. Zakrzewski, J. Gao, N. Rega, 
 G. Zheng, W. Liang, M. Hada, M. Ehara, K. Toyota, R. Fukuda, 
 J. Hasegawa, M. Ishida, T. Nakajima, Y. Honda, O. Kitao, H. Nakai, 
 T. Vreven, K. Throssell, J. A. Montgomery, Jr., J. E. Peralta, 
 F. Ogliaro, M. J. Bearpark, J. J. Heyd, E. N. Brothers, K. N. Kudin, 
 V. N. Staroverov, T. A. Keith, R. Kobayashi, J. Normand, 
 K. Raghavachari, A. P. Rendell, J. C. Burant, S. S. Iyengar, 
 J. Tomasi, M. Cossi, J. M. Millam, M. Klene, C. Adamo, R. Cammi, 
 J. W. Ochterski, R. L. Martin, K. Morokuma, O. Farkas, 
 J. B. Foresman, and D. J. Fox, Gaussian, Inc., Wallingford CT, 2019.
 
 ******************************************
 Gaussian 16:  ES64L-G16RevC.01  3-Jul-2019
                17-Jul-2024 
 ******************************************
 %chk=a.chk
 %nprocshared=56
 Will use up to   56 processors via shared memory.
 %mem=96gb
 ----------------------------------------------------------------------
 # pbe1pbe em=gd3bj genecp g09default scf=(xqc,maxcycle=64) force guess
 =read nosymm
 ----------------------------------------------------------------------
 1/10=7,30=1,38=1,158=3,167=1/1,3;
 2/12=2,15=1,17=6,18=5,40=1/2;
 3/5=7,11=2,16=1,17=8,25=1,27=10,30=1,71=1,74=-13,75=-4,116=-2,124=41,158=3/1,2,3;
 4/5=1,60=-1/1;
 5/5=2,7=64,8=3,13=1,38=6,87=10/2,8;
 6/7=2,8=2,9=2,10=2,28=1,87=10/1;
 7/29=1,30=1,87=10/1,2,3,16;
 1/10=7,30=1,158=3,167=1/3;
 99//99;
 Using 2006 physical constants.
 ----------
 Title Card
 ----------
 Symbolic Z-matrix:
 Charge =  0 Multiplicity = 1
 6                     0.        0.70835   0.00007 
 6                    -1.25818   1.35137   0.00005 
 6                    -1.24322   2.7461   0. 
 6                     0.        3.39406   0.00001 
 6                     1.24322   2.7461    0.00005 
 6                     1.25819   1.35137   0.00009 
 1                    -2.15922   3.327    -0.00005 
 1                     0.        4.48774  -0.00001 
 1                     2.15922   3.327     0.00005 
 6                     3.66463   0.58247  -0.00002 
 6                     1.8899   -0.89843   0.00011 
 6                     4.16076  -0.74269  -0.0001 
 6                     4.52553   1.66477  -0.00005 
 6                     5.52842  -1.00146  -0.0002 
 6                     5.90723   1.40076  -0.00017 
 1                     4.161     2.68365   0.00001 
 6                     6.39269   0.10026  -0.00024 
 1                     5.90713  -2.01944  -0.00025 
 1                     6.59557   2.23683  -0.0002 
 1                     7.46504  -0.07074  -0.00032 
 6                    -3.66464   0.58248  -0.00003 
 6                    -1.88989  -0.89843   0.00007 
 6                    -4.16075  -0.74269  -0.00006 
 6                    -4.52552   1.66476  -0.00005 
 6                    -5.52842  -1.00147  -0.0001 
 6                    -5.90723   1.40075  -0.0001 
 1                    -4.161     2.68365  -0.00002 
 6                    -6.39268   0.10025  -0.00012 
 1                    -5.90712  -2.01945  -0.00011 
 1                    -6.59557   2.23682  -0.00011 
 1                    -7.46504  -0.07075  -0.00015 
 7                    -2.28287   0.46848   0.00001 
 7                    -3.08812  -1.59742  -0.00005 
 7                     2.28287   0.46848   0.00008 
 7                     3.08813  -1.59741  -0.00005 
 6                     3.17927  -3.01991   0.00001 
 1                     3.70462  -3.3827   -0.89331 
 1                     3.7042   -3.38271   0.89358 
 1                     2.17121  -3.44487  -0.00025 
 6                    -3.17926  -3.01991   0.00004 
 1                    -3.70413  -3.3827    0.89366 
 1                    -3.70467  -3.38272  -0.89323 
 1                    -2.1712   -3.44487  -0.00027 
 27                    0.       -1.17863   0.00008 
 

 GradGradGradGradGradGradGradGradGradGradGradGradGradGradGradGradGradGrad
 Berny optimization.
 Initialization pass.
 Trust Radius=3.00D-01 FncErr=1.00D-07 GrdErr=1.00D-07 EigMax=2.50D+02 EigMin=1.00D-04
 Number of steps in this run=      2 maximum allowed number of steps=      2.
 GradGradGradGradGradGradGradGradGradGradGradGradGradGradGradGradGradGrad

                          Input orientation:                          
 ---------------------------------------------------------------------
 Center     Atomic      Atomic             Coordinates (Angstroms)
 Number     Number       Type             X           Y           Z
 ---------------------------------------------------------------------
      1          6           0        0.000000    0.708353    0.000075
      2          6           0       -1.258179    1.351375    0.000050
      3          6           0       -1.243223    2.746097   -0.000004
      4          6           0        0.000003    3.394058    0.000013
      5          6           0        1.243222    2.746098    0.000048
      6          6           0        1.258186    1.351373    0.000092
      7          1           0       -2.159215    3.326995   -0.000046
      8          1           0        0.000001    4.487744   -0.000011
      9          1           0        2.159218    3.326997    0.000049
     10          6           0        3.664634    0.582474   -0.000018
     11          6           0        1.889897   -0.898434    0.000109
     12          6           0        4.160760   -0.742691   -0.000095
     13          6           0        4.525526    1.664772   -0.000053
     14          6           0        5.528417   -1.001465   -0.000201
     15          6           0        5.907231    1.400759   -0.000170
     16          1           0        4.160998    2.683653    0.000013
     17          6           0        6.392692    0.100256   -0.000241
     18          1           0        5.907132   -2.019440   -0.000249
     19          1           0        6.595573    2.236827   -0.000196
     20          1           0        7.465044   -0.070737   -0.000324
     21          6           0       -3.664635    0.582476   -0.000030
     22          6           0       -1.889886   -0.898433    0.000068
     23          6           0       -4.160749   -0.742693   -0.000065
     24          6           0       -4.525519    1.664758   -0.000051
     25          6           0       -5.528417   -1.001474   -0.000102
     26          6           0       -5.907233    1.400753   -0.000098
     27          1           0       -4.160998    2.683650   -0.000022
     28          6           0       -6.392682    0.100246   -0.000121
     29          1           0       -5.907124   -2.019448   -0.000109
     30          1           0       -6.595571    2.236816   -0.000108
     31          1           0       -7.465042   -0.070748   -0.000151
     32          7           0       -2.282869    0.468477    0.000008
     33          7           0       -3.088123   -1.597419   -0.000047
     34          7           0        2.282868    0.468481    0.000083
     35          7           0        3.088127   -1.597406   -0.000054
     36          6           0        3.179270   -3.019910    0.000006
     37          1           0        3.704624   -3.382701   -0.893311
     38          1           0        3.704201   -3.382707    0.893575
     39          1           0        2.171209   -3.444870   -0.000247
     40          6           0       -3.179258   -3.019909    0.000043
     41          1           0       -3.704130   -3.382698    0.893655
     42          1           0       -3.704675   -3.382720   -0.893232
     43          1           0       -2.171199   -3.444872   -0.000274
     44         27           0        0.000001   -1.178634    0.000084
 ---------------------------------------------------------------------
                    Distance matrix (angstroms):
                    1          2          3          4          5
     1  C    0.000000
     2  C    1.412973   0.000000
     3  C    2.387049   1.394802   0.000000
     4  C    2.685705   2.399079   1.401950   0.000000
     5  C    2.387049   2.863959   2.486445   1.401944   0.000000
     6  C    1.412978   2.516366   2.863966   2.399081   1.394805
     7  H    3.394039   2.171392   1.084659   2.160259   3.451669
     8  H    3.779392   3.379324   2.139846   1.093686   2.139844
     9  H    3.394041   3.947365   3.451673   2.160256   1.084662
    10  C    3.666795   4.982500   5.363611   4.618931   3.247230
    11  C    2.480619   3.869370   4.806146   4.690116   3.701459
    12  C    4.406523   5.809476   6.432314   5.867247   4.547931
    13  C    4.625486   5.792190   5.869218   4.844666   3.455833
    14  C    5.786784   7.182878   7.739465   7.062859   5.692725
    15  C    5.947672   7.165581   7.275914   6.234468   4.854165
    16  H    4.606052   5.580542   5.404582   4.221203   2.918445
    17  C    6.421549   7.752492   8.081316   7.191357   5.789432
    18  H    6.506540   7.918591   8.592900   8.012499   6.668014
    19  H    6.770362   7.903508   7.855321   6.696322   5.376525
    20  H    7.505589   8.838384   9.152512   8.229924   6.829761
    21  C    3.666797   2.526309   3.247228   4.618936   5.363611
    22  C    2.480611   2.336812   3.701455   4.690113   4.806139
    23  C    4.406514   3.579110   4.547924   5.867245   6.432306
    24  C    4.625477   3.282334   3.455830   4.844670   5.869214
    25  C    5.786787   4.875533   5.692730   7.062869   7.739469
    26  C    5.947674   4.649316   4.854167   6.234477   7.275916
    27  H    4.606051   3.193949   2.918443   4.221209   5.404580
    28  C    6.421540   5.284736   5.789426   7.191357   8.081309
    29  H    6.506536   5.742398   6.668012   8.012502   8.592897
    30  H    6.770359   5.410337   5.376522   6.696327   7.855319
    31  H    7.505589   6.367698   6.829762   8.229932   9.152513
    32  N    2.295437   1.352589   2.503680   3.710866   4.197722
    33  N    3.853970   3.470458   4.719087   5.869528   6.134059
    34  N    2.295436   3.649455   4.197720   3.710860   2.503678
    35  N    3.853966   5.252208   6.134053   5.869517   4.719079
    36  C    4.899766   6.228892   7.266724   7.158682   6.082362
    37  H    5.590984   6.916574   7.927254   7.774748   6.664741
    38  H    5.590726   6.916295   7.927025   7.774579   6.664613
    39  H    4.686514   5.896158   7.070108   7.175310   6.260132
    40  C    4.899757   4.774795   6.082356   7.158679   7.266717
    41  H    5.590686   5.403022   6.664594   7.774550   7.926977
    42  H    5.591019   5.403235   6.664758   7.774783   7.927297
    43  H    4.686511   4.882376   6.260131   7.175311   7.070105
    44  Co   1.886987   2.825590   4.116930   4.572692   4.116931
                    6          7          8          9         10
     6  C    0.000000
     7  H    3.947368   0.000000
     8  H    3.379328   2.451439   0.000000
     9  H    2.171393   4.318433   2.451439   0.000000
    10  C    2.526301   6.438138   5.355434   3.130285   0.000000
    11  C    2.336811   5.852312   5.708119   4.234005   2.311446
    12  C    3.579111   7.516943   6.683515   4.535254   1.414993
    13  C    3.282335   6.888305   5.333812   2.891782   1.382932
    14  C    4.875522   8.822429   7.790687   5.485169   2.445925
    15  C    4.649307   8.293247   6.665197   4.214024   2.387222
    16  H    3.193946   6.352872   4.535267   2.102621   2.159012
    17  C    5.284737   9.140403   7.753487   5.322984   2.770349
    18  H    5.742393   9.677310   8.788496   6.529261   3.434932
    19  H    5.410335   8.822402   6.969089   4.568338   3.365603
    20  H    6.367691  10.206417   8.746807   6.300507   3.856138
    21  C    4.982507   3.130284   5.355434   6.438141   7.329269
    22  C    3.869365   4.234003   5.708115   5.852307   5.748546
    23  C    5.809472   4.535251   6.683511   7.516938   7.936793
    24  C    5.792190   2.891786   5.333815   6.888305   8.261353
    25  C    7.182887   5.485177   7.790694   8.822436   9.328509
    26  C    7.165589   4.214030   6.665203   8.293253   9.606780
    27  H    5.580548   2.102624   4.535269   6.352875   8.102806
    28  C    7.752490   5.322983   7.753485   9.140400  10.068870
    29  H    7.918593   6.529263   8.788497   9.677311   9.919101
    30  H    7.903512   4.568341   6.969092   8.822404  10.392721
    31  H    8.838391   6.300513   8.746812  10.206422  11.148830
    32  N    3.649463   2.861192   4.622338   5.282355   5.948596
    33  N    5.252217   5.011260   6.823908   7.196142   7.095891
    34  N    1.352580   5.282349   4.622333   2.861189   1.386460
    35  N    3.470444   7.196133   6.823898   5.011249   2.254826
    36  C    4.774796   8.293530   8.153075   6.428354   3.634935
    37  H    5.403211   8.955588   8.744492   6.943084   4.064750
    38  H    5.403038   8.955351   8.744347   6.943017   4.064817
    39  H    4.882372   8.038081   8.224386   6.771878   4.295326
    40  C    6.228886   6.428350   8.153070   8.293524   7.734083
    41  H    6.916247   6.943015   8.744318   8.955300   8.415458
    42  H    6.916622   6.943091   8.744523   8.955640   8.415896
    43  H    5.896156   6.771878   8.224386   8.038080   7.090591
    44  Co   2.825591   4.996289   5.666378   4.996291   4.065838
                   11         12         13         14         15
    11  C    0.000000
    12  C    2.276197   0.000000
    13  C    3.676488   2.434940   0.000000
    14  C    3.639978   1.391923   2.848615   0.000000
    15  C    4.628743   2.764876   1.406703   2.431909   0.000000
    16  H    4.241374   3.426345   1.082127   3.930640   2.166829
    17  C    4.612217   2.385809   2.435985   1.400272   1.388157
    18  H    4.170712   2.163309   3.934750   1.086140   3.420199
    19  H    5.654489   3.847836   2.147636   3.409597   1.082970
    20  H    5.636254   3.371916   3.413614   2.148670   2.142915
    21  C    5.748558   7.936805   8.261362   9.328508   9.606779
    22  C    3.779782   6.052649   6.908511   7.419018   8.129041
    23  C    6.052649   8.321508   9.013726   9.692620  10.293619
    24  C    6.908510   9.013726   9.051045  10.401460  10.436090
    25  C    7.419029   9.692632  10.401472  11.056833  11.685237
    26  C    8.129052  10.293630  10.436099  11.685235  11.814464
    27  H    7.031689   8.999526   8.746074  10.366524  10.149633
    28  C    8.342570  10.587052  11.029732  11.971898  12.368476
    29  H    7.877196  10.148517  11.064071  11.480761  12.299464
    30  H    9.046156  11.161367  11.135799  12.549005  12.530724
    31  H    9.391483  11.645204  12.115517  13.026750  13.452993
    32  N    4.390947   6.556468   6.912695   7.948390   8.242990
    33  N    5.026854   7.299100   8.283087   8.637125   9.481849
    34  N    1.422280   2.234594   2.541776   3.562909   3.742345
    35  N    1.387198   1.371524   3.564817   2.512003   4.115379
    36  C    2.482569   2.479727   4.874284   3.097194   5.194621
    37  H    3.203595   2.824101   5.191221   3.129561   5.341411
    38  H    3.203373   2.824319   5.191357   3.130002   5.341691
    39  H    2.561928   3.355605   5.625944   4.152237   6.118658
    40  C    5.495179   7.685154   9.017202   8.938553  10.104781
    41  H    6.185720   8.344155   9.695509   9.576491  10.773052
    42  H    6.186192   8.344609   9.695934   9.576944  10.773484
    43  H    4.793418   6.884438   8.423455   8.078015   9.420254
    44  Co   1.910555   4.183535   5.344655   5.531254   6.445823
                   16         17         18         19         20
    16  H    0.000000
    17  C    3.413854   0.000000
    18  H    5.016779   2.174599   0.000000
    19  H    2.475238   2.146181   4.311584   0.000000
    20  H    4.301556   1.085900   2.494902   2.465934   0.000000
    21  C    8.102807  10.068881   9.919108  10.392725  11.148832
    22  C    7.031681   8.342570   7.877192   9.046151   9.391475
    23  C    8.999518  10.587052  10.148513  11.161361  11.645196
    24  C    8.746070  11.029733  11.064065  11.135796  12.115509
    25  C   10.366529  11.971911  11.480768  12.549012  13.026753
    26  C   10.149636  12.368486  12.299469  12.530729  13.452995
    27  H    8.321996  10.865280  11.112439  10.765847  11.947866
    28  C   10.865273  12.785374  12.481126  13.162816  13.858781
    29  H   11.112437  12.481131  11.814257  13.207320  13.513414
    30  H   10.765846  13.162821  13.207320  13.191143  14.248709
    31  H   11.947868  13.858790  13.513418  14.248712  14.930087
    32  N    6.813988   8.683372   8.559547   9.052833   9.762815
    33  N    8.418868   9.631613   9.005150  10.415152  10.663025
    34  N    2.904197   4.126287   4.396025   4.661165   5.210154
    35  N    4.413448   3.715132   2.850422   5.196491   4.635529
    36  C    5.787437   4.479009   2.905542   6.269322   5.202450
    37  H    6.148737   4.489351   2.739906   6.382345   5.089921
    38  H    6.148809   4.489758   2.740497   6.382634   5.090397
    39  H    6.443451   5.512607   3.998621   7.201158   6.277696
    40  C    9.295698  10.067655   9.141304  11.098675  11.045307
    41  H    9.972937  10.718015   9.748534  11.766984  11.684124
    42  H    9.973344  10.718459   9.748989  11.767409  11.684569
    43  H    8.812239   9.268666   8.203127  10.446913  10.209896
    44  Co   5.677250   6.519361   5.966671   7.427445   7.546808
                   21         22         23         24         25
    21  C    0.000000
    22  C    2.311456   0.000000
    23  C    1.414992   2.276197   0.000000
    24  C    1.382916   3.676481   2.434929   0.000000
    25  C    2.445931   3.639990   1.391935   2.848613   0.000000
    26  C    2.387220   4.628751   2.764881   1.406710   2.431911
    27  H    2.159006   4.241376   3.426343   1.082135   3.930645
    28  C    2.770340   4.612216   2.385806   2.435979   1.400264
    29  H    3.434933   4.170717   2.163315   3.934743   1.086136
    30  H    3.365594   5.654490   3.847835   2.147641   3.409595
    31  H    3.856138   5.636261   3.371923   3.413617   2.148667
    32  N    1.386461   1.422280   2.234584   2.541765   3.562911
    33  N    2.254841   1.387211   1.371525   3.564815   2.512008
    34  N    5.948596   4.390937   6.556458   6.912686   7.948392
    35  N    7.095892   5.026845   7.299091   8.283074   8.637127
    36  C    7.734095   5.495180   7.685154   9.017200   8.938562
    37  H    8.415852   6.186134   8.344556   9.695877   9.576905
    38  H    8.415519   6.185772   8.344202   9.695554   9.576542
    39  H    7.090599   4.793416   6.884436   8.423448   8.078021
    40  C    3.634937   2.482568   2.479725   4.874272   3.097197
    41  H    4.064829   3.203366   2.824334   5.191359   3.130025
    42  H    4.064750   3.203611   2.824092   5.191204   3.129545
    43  H    4.295333   2.561931   3.355604   5.625935   4.152241
    44  Co   4.065841   1.910545   4.183525   5.344643   5.531255
                   26         27         28         29         30
    26  C    0.000000
    27  H    2.166833   0.000000
    28  C    1.388156   3.413853   0.000000
    29  H    3.420200   5.016780   2.174596   0.000000
    30  H    1.082964   2.475239   2.146182   4.311582   0.000000
    31  H    2.142915   4.301560   1.085908   2.494902   2.465934
    32  N    3.742346   2.904197   4.126276   4.396021   4.661161
    33  N    4.115387   4.413458   3.715127   2.850417   5.196493
    34  N    8.242991   6.813985   8.683362   8.559543   9.052828
    35  N    9.481849   8.418863   9.631602   9.005146  10.415145
    36  C   10.104791   9.295705  10.067653   9.141307  11.098679
    37  H   10.773442   9.973294  10.718409   9.748948  11.767361
    38  H   10.773106   9.972992  10.718055   9.748576  11.767030
    39  H    9.420260   8.812242   9.268661   8.203128  10.446913
    40  C    5.194622   5.787435   4.479002   2.905542   6.269318
    41  H    5.341709   6.148818   4.489771   2.740520   6.382647
    42  H    5.341401   6.148732   4.489330   2.739884   6.382330
    43  H    6.118662   6.443453   5.512602   3.998621   7.201155
    44  Co   6.445824   5.677248   6.519350   5.966665   7.427439
                   31         32         33         34         35
    31  H    0.000000
    32  N    5.210152   0.000000
    33  N    4.635531   2.217286   0.000000
    34  N    9.762814   4.565737   5.754606   0.000000
    35  N   10.663023   5.754604   6.176250   2.217280   0.000000
    36  C   11.045313   6.481035   6.426796   3.601723   1.425421
    37  H   11.684529   7.174933   7.080012   4.201327   2.089319
    38  H   11.684170   7.174614   7.079653   4.201210   2.089359
    39  H   10.209900   5.929005   5.574375   3.914944   2.062489
    40  C    5.202451   3.601715   1.425407   6.481026   6.426790
    41  H    5.090419   4.201207   2.089352   7.174553   7.079600
    42  H    5.089904   4.201325   2.089310   7.174987   7.080061
    43  H    6.277698   3.914942   2.062483   5.929001   5.574374
    44  Co   7.546806   2.815043   3.116391   2.815044   3.116391
                   36         37         38         39         40
    36  C    0.000000
    37  H    1.098012   0.000000
    38  H    1.098017   1.786887   0.000000
    39  H    1.093973   1.775610   1.775626   0.000000
    40  C    6.358529   6.951082   6.950686   5.367318   0.000000
    41  H    6.950642   7.621213   7.408331   5.943277   1.098021
    42  H    6.951129   7.409299   7.621294   5.943677   1.098014
    43  H    5.367319   5.943625   5.943329   4.342409   1.093973
    44  Co   3.673970   4.402307   4.401973   3.138467   3.673960
                   41         42         43         44
    41  H    0.000000
    42  H    1.786888   0.000000
    43  H    1.775628   1.775608   0.000000
    44  Co   4.401926   4.402344   3.138462   0.000000
 Symmetry turned off by external request.
 Stoichiometry    C22H17CoN4
 Framework group  C1[X(C22H17CoN4)]
 Deg. of freedom   126
 Full point group                 C1      NOp   1
 Rotational constants (GHZ):           0.4702161           0.1014769           0.0835533
 General basis read from cards:  (5D, 7F)
 ======================================================================================================
                                       Pseudopotential Parameters
 ======================================================================================================
  Center     Atomic      Valence      Angular      Power
  Number     Number     Electrons     Momentum     of R      Exponent        Coefficient   SO-Coeffient
 ======================================================================================================
    1          6
                                   No pseudopotential on this center.
    2          6
                                   No pseudopotential on this center.
    3          6
                                   No pseudopotential on this center.
    4          6
                                   No pseudopotential on this center.
    5          6
                                   No pseudopotential on this center.
    6          6
                                   No pseudopotential on this center.
    7          1
                                   No pseudopotential on this center.
    8          1
                                   No pseudopotential on this center.
    9          1
                                   No pseudopotential on this center.
   10          6
                                   No pseudopotential on this center.
   11          6
                                   No pseudopotential on this center.
   12          6
                                   No pseudopotential on this center.
   13          6
                                   No pseudopotential on this center.
   14          6
                                   No pseudopotential on this center.
   15          6
                                   No pseudopotential on this center.
   16          1
                                   No pseudopotential on this center.
   17          6
                                   No pseudopotential on this center.
   18          1
                                   No pseudopotential on this center.
   19          1
                                   No pseudopotential on this center.
   20          1
                                   No pseudopotential on this center.
   21          6
                                   No pseudopotential on this center.
   22          6
                                   No pseudopotential on this center.
   23          6
                                   No pseudopotential on this center.
   24          6
                                   No pseudopotential on this center.
   25          6
                                   No pseudopotential on this center.
   26          6
                                   No pseudopotential on this center.
   27          1
                                   No pseudopotential on this center.
   28          6
                                   No pseudopotential on this center.
   29          1
                                   No pseudopotential on this center.
   30          1
                                   No pseudopotential on this center.
   31          1
                                   No pseudopotential on this center.
   32          7
                                   No pseudopotential on this center.
   33          7
                                   No pseudopotential on this center.
   34          7
                                   No pseudopotential on this center.
   35          7
                                   No pseudopotential on this center.
   36          6
                                   No pseudopotential on this center.
   37          1
                                   No pseudopotential on this center.
   38          1
                                   No pseudopotential on this center.
   39          1
                                   No pseudopotential on this center.
   40          6
                                   No pseudopotential on this center.
   41          1
                                   No pseudopotential on this center.
   42          1
                                   No pseudopotential on this center.
   43          1
                                   No pseudopotential on this center.
   44         27           17
                                      F and up 
                                                     2        1.0000000        0.00000000    0.00000000
                                      S - F
                                                     2       23.6600000      283.96056600    0.00000000
                                                     2       10.6100000       47.15684600    0.00000000
                                      P - F
                                                     2       25.0400000      182.21223600    0.00000000
                                                     2       10.4400000       35.23335200    0.00000000
                                      D - F
                                                     2       29.5400000      -26.47533300    0.00000000
                                                     2       10.1800000       -1.82578700    0.00000000
 ======================================================================================================
   441 basis functions,   871 primitive gaussians,   473 cartesian basis functions
    97 alpha electrons       97 beta electrons
       nuclear repulsion energy      2498.5321944606 Hartrees.
 NAtoms=   44 NActive=   44 NUniq=   44 SFac= 1.00D+00 NAtFMM=   60 NAOKFM=F Big=F
 Integral buffers will be    131072 words long.
 Raffenetti 2 integral format.
 Two-electron integral symmetry is turned off.
 Nuclear repulsion after empirical dispersion term =     2498.4729259876 Hartrees.
 One-electron integrals computed using PRISM.
   1 Symmetry operations used in ECPInt.
 ECPInt:  NShTT=   11781 NPrTT=   71406 LenC2=    9542 LenP2D=   32125.
 LDataN:  DoStor=T MaxTD1= 6 Len=  172
 NBasis=   441 RedAO= T EigKep=  3.44D-04  NBF=   441
 NBsUse=   441 1.00D-06 EigRej= -1.00D+00 NBFU=   441
 Initial guess from the checkpoint file:  "a.chk"
 B after Tr=     0.000000    0.002760    0.000002
         Rot=    1.000000    0.000000   -0.000000   -0.000000 Ang=   0.00 deg.
 Initial guess <Sx>= 0.0000 <Sy>= 0.0000 <Sz>= 0.0000 <S**2>= 0.0000 S= 0.0000
 Requested convergence on RMS density matrix=1.00D-08 within  64 cycles.
 Requested convergence on MAX density matrix=1.00D-06.
 Requested convergence on             energy=1.00D-06.
 No special actions if energy rises.
 EnCoef did     3 forward-backward iterations
 EnCoef did     1 forward-backward iterations
 SCF Done:  E(UPBE1PBE) =  -1212.13869878     A.U. after   17 cycles
            NFock= 17  Conv=0.31D-08     -V/T= 2.0552
 <Sx>= 0.0000 <Sy>= 0.0000 <Sz>= 0.0000 <S**2>= 0.0000 S= 0.0000
 <L.S>=  0.00000000000    
 Annihilation of the first spin contaminant:
 S**2 before annihilation     0.0000,   after    -0.0000
 QCSCF skips out because SCF is already converged.

 **********************************************************************

            Population analysis using the SCF Density.

 **********************************************************************

 Alpha  occ. eigenvalues --  -14.45738 -14.45738 -14.44965 -14.44964 -10.28023
 Alpha  occ. eigenvalues --  -10.28022 -10.27516 -10.27515 -10.27397 -10.27397
 Alpha  occ. eigenvalues --  -10.27315 -10.27315 -10.24813 -10.24813 -10.24164
 Alpha  occ. eigenvalues --  -10.24164 -10.23884 -10.23884 -10.23414 -10.23414
 Alpha  occ. eigenvalues --  -10.23351 -10.23351 -10.21294 -10.21289 -10.21056
 Alpha  occ. eigenvalues --  -10.18899  -3.83571  -2.35391  -2.35185  -2.31573
 Alpha  occ. eigenvalues --   -1.06119  -1.06043  -0.97216  -0.96871  -0.88134
 Alpha  occ. eigenvalues --   -0.87891  -0.84682  -0.80299  -0.78778  -0.77850
 Alpha  occ. eigenvalues --   -0.77842  -0.75604  -0.75070  -0.72726  -0.71836
 Alpha  occ. eigenvalues --   -0.66647  -0.65271  -0.64573  -0.63877  -0.62704
 Alpha  occ. eigenvalues --   -0.61422  -0.58774  -0.57252  -0.56511  -0.54104
 Alpha  occ. eigenvalues --   -0.53179  -0.51785  -0.49780  -0.49718  -0.49029
 Alpha  occ. eigenvalues --   -0.48014  -0.47759  -0.47402  -0.46720  -0.46102
 Alpha  occ. eigenvalues --   -0.45785  -0.45168  -0.45007  -0.44658  -0.44109
 Alpha  occ. eigenvalues --   -0.42218  -0.41946  -0.40970  -0.38448  -0.38426
 Alpha  occ. eigenvalues --   -0.38288  -0.37483  -0.36841  -0.36798  -0.36641
 Alpha  occ. eigenvalues --   -0.35783  -0.34440  -0.34375  -0.33798  -0.31447
 Alpha  occ. eigenvalues --   -0.29048  -0.26574  -0.26040  -0.24804  -0.24745
 Alpha  occ. eigenvalues --   -0.24403  -0.21214  -0.20957  -0.20690  -0.16148
 Alpha  occ. eigenvalues --   -0.15700  -0.15333
 Alpha virt. eigenvalues --   -0.04676  -0.02392  -0.00557   0.00048   0.00866
 Alpha virt. eigenvalues --    0.01374   0.02062   0.03439   0.05461   0.05875
 Alpha virt. eigenvalues --    0.06612   0.07418   0.09320   0.09383   0.10182
 Alpha virt. eigenvalues --    0.10864   0.12623   0.13083   0.14169   0.14186
 Alpha virt. eigenvalues --    0.15377   0.15866   0.15895   0.16103   0.16520
 Alpha virt. eigenvalues --    0.16911   0.17313   0.17800   0.18026   0.18381
 Alpha virt. eigenvalues --    0.19244   0.19448   0.19820   0.20516   0.21916
 Alpha virt. eigenvalues --    0.22263   0.22920   0.22980   0.23168   0.24162
 Alpha virt. eigenvalues --    0.26072   0.26290   0.26637   0.27634   0.28276
 Alpha virt. eigenvalues --    0.28362   0.29488   0.29740   0.31157   0.31442
 Alpha virt. eigenvalues --    0.32142   0.33333   0.34073   0.34626   0.34733
 Alpha virt. eigenvalues --    0.36564   0.37722   0.38136   0.39836   0.39859
 Alpha virt. eigenvalues --    0.41379   0.42941   0.44599   0.45905   0.46770
 Alpha virt. eigenvalues --    0.47858   0.48181   0.50988   0.51295   0.51859
 Alpha virt. eigenvalues --    0.52442   0.53647   0.53866   0.56103   0.56284
 Alpha virt. eigenvalues --    0.56762   0.57061   0.57157   0.58078   0.58637
 Alpha virt. eigenvalues --    0.58713   0.59161   0.59476   0.60311   0.61577
 Alpha virt. eigenvalues --    0.61597   0.61800   0.62985   0.63060   0.63231
 Alpha virt. eigenvalues --    0.63447   0.63542   0.63589   0.64077   0.64221
 Alpha virt. eigenvalues --    0.65217   0.65338   0.66491   0.67083   0.67093
 Alpha virt. eigenvalues --    0.67746   0.67963   0.68338   0.68542   0.71005
 Alpha virt. eigenvalues --    0.72412   0.72466   0.74312   0.76334   0.76426
 Alpha virt. eigenvalues --    0.76864   0.77680   0.78510   0.80349   0.80420
 Alpha virt. eigenvalues --    0.81319   0.81961   0.82774   0.83940   0.83974
 Alpha virt. eigenvalues --    0.84130   0.84813   0.85170   0.86017   0.86967
 Alpha virt. eigenvalues --    0.87299   0.87394   0.88239   0.90005   0.90730
 Alpha virt. eigenvalues --    0.91123   0.91523   0.91669   0.92411   0.92976
 Alpha virt. eigenvalues --    0.93636   0.94165   0.94817   0.96009   0.96247
 Alpha virt. eigenvalues --    0.96333   0.97350   0.97904   0.98278   0.98288
 Alpha virt. eigenvalues --    0.98373   1.00209   1.00266   1.01960   1.01996
 Alpha virt. eigenvalues --    1.02880   1.04124   1.04278   1.06481   1.07345
 Alpha virt. eigenvalues --    1.09639   1.09909   1.10624   1.11188   1.14381
 Alpha virt. eigenvalues --    1.14739   1.15271   1.16545   1.16963   1.18499
 Alpha virt. eigenvalues --    1.18588   1.19072   1.21165   1.23845   1.23996
 Alpha virt. eigenvalues --    1.24842   1.25815   1.27071   1.27379   1.29413
 Alpha virt. eigenvalues --    1.29480   1.30369   1.30831   1.33378   1.33902
 Alpha virt. eigenvalues --    1.34482   1.36335   1.36518   1.36977   1.39312
 Alpha virt. eigenvalues --    1.39322   1.41344   1.41448   1.42621   1.42970
 Alpha virt. eigenvalues --    1.45010   1.45015   1.45426   1.47031   1.47855
 Alpha virt. eigenvalues --    1.48036   1.49263   1.49996   1.50006   1.50722
 Alpha virt. eigenvalues --    1.51501   1.51867   1.53781   1.56818   1.58179
 Alpha virt. eigenvalues --    1.58700   1.60932   1.61078   1.65943   1.66164
 Alpha virt. eigenvalues --    1.66306   1.70671   1.71960   1.73266   1.75268
 Alpha virt. eigenvalues --    1.77462   1.78927   1.80257   1.80799   1.82635
 Alpha virt. eigenvalues --    1.82930   1.85695   1.87608   1.87659   1.87826
 Alpha virt. eigenvalues --    1.87876   1.89347   1.90853   1.91388   1.92587
 Alpha virt. eigenvalues --    1.93937   1.95409   1.95752   1.96656   1.97726
 Alpha virt. eigenvalues --    1.97944   1.98262   1.98994   1.99727   1.99818
 Alpha virt. eigenvalues --    2.00145   2.00891   2.02569   2.02717   2.03110
 Alpha virt. eigenvalues --    2.05851   2.07191   2.07295   2.09649   2.11853
 Alpha virt. eigenvalues --    2.13066   2.13156   2.14356   2.15681   2.15688
 Alpha virt. eigenvalues --    2.16457   2.16876   2.17463   2.19022   2.19947
 Alpha virt. eigenvalues --    2.20721   2.20946   2.21503   2.22718   2.24047
 Alpha virt. eigenvalues --    2.24333   2.24563   2.26252   2.26898   2.27610
 Alpha virt. eigenvalues --    2.27962   2.28075   2.28146   2.28634   2.29181
 Alpha virt. eigenvalues --    2.33059   2.35932   2.38091   2.40342   2.40739
 Alpha virt. eigenvalues --    2.40925   2.43458   2.44777   2.47070   2.48053
 Alpha virt. eigenvalues --    2.51890   2.52283   2.52865   2.57204   2.58757
 Alpha virt. eigenvalues --    2.58971   2.59423   2.59960   2.60810   2.63161
 Alpha virt. eigenvalues --    2.63904   2.65236   2.66645   2.68212   2.69112
 Alpha virt. eigenvalues --    2.70830   2.71285   2.72382   2.74849   2.76236
 Alpha virt. eigenvalues --    2.76373   2.76710   2.76900   2.78808   2.79835
 Alpha virt. eigenvalues --    2.83029   2.87665   2.88586   2.88676   2.89231
 Alpha virt. eigenvalues --    2.94206   2.95216   2.97541   2.97638   2.99649
 Alpha virt. eigenvalues --    3.03023   3.06482   3.07895   3.16917   3.20268
 Alpha virt. eigenvalues --    3.20983   3.28583   3.41436   3.45736   3.47726
 Alpha virt. eigenvalues --    3.51776   3.52783   3.62730   5.66389   5.66946
 Alpha virt. eigenvalues --    5.67713   5.68556   5.68784   5.70188   5.72218
 Alpha virt. eigenvalues --   45.81578  46.02021  46.04458  63.11184
  Beta  occ. eigenvalues --  -14.45738 -14.45738 -14.44965 -14.44964 -10.28023
  Beta  occ. eigenvalues --  -10.28022 -10.27516 -10.27515 -10.27397 -10.27397
  Beta  occ. eigenvalues --  -10.27315 -10.27315 -10.24813 -10.24813 -10.24164
  Beta  occ. eigenvalues --  -10.24164 -10.23884 -10.23884 -10.23414 -10.23414
  Beta  occ. eigenvalues --  -10.23351 -10.23351 -10.21294 -10.21289 -10.21056
  Beta  occ. eigenvalues --  -10.18899  -3.83571  -2.35391  -2.35185  -2.31573
  Beta  occ. eigenvalues --   -1.06119  -1.06043  -0.97216  -0.96871  -0.88134
  Beta  occ. eigenvalues --   -0.87891  -0.84682  -0.80299  -0.78778  -0.77850
  Beta  occ. eigenvalues --   -0.77842  -0.75604  -0.75070  -0.72726  -0.71836
  Beta  occ. eigenvalues --   -0.66647  -0.65271  -0.64573  -0.63877  -0.62704
  Beta  occ. eigenvalues --   -0.61422  -0.58774  -0.57252  -0.56511  -0.54104
  Beta  occ. eigenvalues --   -0.53179  -0.51785  -0.49780  -0.49718  -0.49029
  Beta  occ. eigenvalues --   -0.48014  -0.47759  -0.47402  -0.46720  -0.46102
  Beta  occ. eigenvalues --   -0.45785  -0.45168  -0.45007  -0.44658  -0.44109
  Beta  occ. eigenvalues --   -0.42218  -0.41946  -0.40970  -0.38448  -0.38426
  Beta  occ. eigenvalues --   -0.38288  -0.37483  -0.36841  -0.36798  -0.36641
  Beta  occ. eigenvalues --   -0.35783  -0.34440  -0.34375  -0.33798  -0.31447
  Beta  occ. eigenvalues --   -0.29048  -0.26574  -0.26040  -0.24804  -0.24745
  Beta  occ. eigenvalues --   -0.24403  -0.21214  -0.20957  -0.20690  -0.16148
  Beta  occ. eigenvalues --   -0.15700  -0.15333
  Beta virt. eigenvalues --   -0.04676  -0.02392  -0.00557   0.00048   0.00866
  Beta virt. eigenvalues --    0.01374   0.02062   0.03439   0.05461   0.05875
  Beta virt. eigenvalues --    0.06612   0.07418   0.09320   0.09383   0.10182
  Beta virt. eigenvalues --    0.10864   0.12623   0.13083   0.14169   0.14186
  Beta virt. eigenvalues --    0.15377   0.15866   0.15895   0.16103   0.16520
  Beta virt. eigenvalues --    0.16911   0.17313   0.17800   0.18026   0.18381
  Beta virt. eigenvalues --    0.19244   0.19448   0.19820   0.20516   0.21916
  Beta virt. eigenvalues --    0.22263   0.22920   0.22980   0.23168   0.24162
  Beta virt. eigenvalues --    0.26072   0.26290   0.26637   0.27634   0.28276
  Beta virt. eigenvalues --    0.28362   0.29487   0.29740   0.31157   0.31442
  Beta virt. eigenvalues --    0.32142   0.33333   0.34073   0.34626   0.34733
  Beta virt. eigenvalues --    0.36564   0.37722   0.38136   0.39836   0.39859
  Beta virt. eigenvalues --    0.41379   0.42941   0.44599   0.45905   0.46770
  Beta virt. eigenvalues --    0.47858   0.48181   0.50988   0.51295   0.51859
  Beta virt. eigenvalues --    0.52442   0.53647   0.53866   0.56103   0.56284
  Beta virt. eigenvalues --    0.56762   0.57061   0.57157   0.58078   0.58637
  Beta virt. eigenvalues --    0.58713   0.59161   0.59476   0.60311   0.61577
  Beta virt. eigenvalues --    0.61597   0.61800   0.62985   0.63060   0.63231
  Beta virt. eigenvalues --    0.63447   0.63542   0.63589   0.64077   0.64221
  Beta virt. eigenvalues --    0.65217   0.65338   0.66491   0.67083   0.67093
  Beta virt. eigenvalues --    0.67746   0.67963   0.68338   0.68542   0.71005
  Beta virt. eigenvalues --    0.72412   0.72466   0.74312   0.76334   0.76426
  Beta virt. eigenvalues --    0.76864   0.77680   0.78510   0.80349   0.80420
  Beta virt. eigenvalues --    0.81319   0.81961   0.82774   0.83940   0.83974
  Beta virt. eigenvalues --    0.84130   0.84813   0.85170   0.86017   0.86967
  Beta virt. eigenvalues --    0.87299   0.87394   0.88239   0.90005   0.90730
  Beta virt. eigenvalues --    0.91123   0.91523   0.91669   0.92411   0.92976
  Beta virt. eigenvalues --    0.93636   0.94165   0.94817   0.96009   0.96247
  Beta virt. eigenvalues --    0.96333   0.97350   0.97904   0.98278   0.98288
  Beta virt. eigenvalues --    0.98373   1.00209   1.00266   1.01960   1.01996
  Beta virt. eigenvalues --    1.02880   1.04124   1.04278   1.06481   1.07345
  Beta virt. eigenvalues --    1.09639   1.09909   1.10624   1.11188   1.14381
  Beta virt. eigenvalues --    1.14739   1.15271   1.16545   1.16963   1.18499
  Beta virt. eigenvalues --    1.18588   1.19072   1.21165   1.23845   1.23996
  Beta virt. eigenvalues --    1.24842   1.25815   1.27071   1.27379   1.29413
  Beta virt. eigenvalues --    1.29480   1.30369   1.30831   1.33378   1.33902
  Beta virt. eigenvalues --    1.34482   1.36335   1.36518   1.36977   1.39312
  Beta virt. eigenvalues --    1.39322   1.41344   1.41448   1.42621   1.42970
  Beta virt. eigenvalues --    1.45010   1.45015   1.45426   1.47031   1.47855
  Beta virt. eigenvalues --    1.48036   1.49263   1.49996   1.50006   1.50722
  Beta virt. eigenvalues --    1.51501   1.51867   1.53781   1.56818   1.58179
  Beta virt. eigenvalues --    1.58700   1.60932   1.61078   1.65943   1.66164
  Beta virt. eigenvalues --    1.66306   1.70671   1.71960   1.73266   1.75268
  Beta virt. eigenvalues --    1.77462   1.78927   1.80257   1.80799   1.82635
  Beta virt. eigenvalues --    1.82930   1.85695   1.87608   1.87659   1.87826
  Beta virt. eigenvalues --    1.87876   1.89347   1.90853   1.91388   1.92587
  Beta virt. eigenvalues --    1.93937   1.95409   1.95752   1.96656   1.97726
  Beta virt. eigenvalues --    1.97944   1.98262   1.98994   1.99727   1.99818
  Beta virt. eigenvalues --    2.00145   2.00891   2.02569   2.02717   2.03110
  Beta virt. eigenvalues --    2.05851   2.07191   2.07295   2.09649   2.11853
  Beta virt. eigenvalues --    2.13066   2.13156   2.14356   2.15681   2.15688
  Beta virt. eigenvalues --    2.16457   2.16876   2.17463   2.19022   2.19947
  Beta virt. eigenvalues --    2.20721   2.20946   2.21503   2.22718   2.24047
  Beta virt. eigenvalues --    2.24333   2.24563   2.26252   2.26898   2.27610
  Beta virt. eigenvalues --    2.27962   2.28075   2.28146   2.28634   2.29181
  Beta virt. eigenvalues --    2.33059   2.35932   2.38091   2.40342   2.40739
  Beta virt. eigenvalues --    2.40925   2.43458   2.44777   2.47070   2.48053
  Beta virt. eigenvalues --    2.51890   2.52283   2.52865   2.57204   2.58757
  Beta virt. eigenvalues --    2.58971   2.59423   2.59960   2.60810   2.63161
  Beta virt. eigenvalues --    2.63904   2.65236   2.66645   2.68212   2.69112
  Beta virt. eigenvalues --    2.70830   2.71285   2.72382   2.74849   2.76236
  Beta virt. eigenvalues --    2.76373   2.76710   2.76900   2.78808   2.79835
  Beta virt. eigenvalues --    2.83029   2.87665   2.88586   2.88676   2.89231
  Beta virt. eigenvalues --    2.94206   2.95216   2.97541   2.97638   2.99649
  Beta virt. eigenvalues --    3.03023   3.06482   3.07895   3.16917   3.20268
  Beta virt. eigenvalues --    3.20983   3.28583   3.41436   3.45736   3.47726
  Beta virt. eigenvalues --    3.51776   3.52783   3.62730   5.66389   5.66946
  Beta virt. eigenvalues --    5.67713   5.68556   5.68784   5.70188   5.72218
  Beta virt. eigenvalues --   45.81578  46.02021  46.04458  63.11184
          Condensed to atoms (all electrons):
               1          2          3          4          5          6
     1  C    5.159637   0.507471  -0.068481  -0.050218  -0.068481   0.507468
     2  C    0.507471   4.670434   0.531356  -0.008692  -0.038629  -0.017251
     3  C   -0.068481   0.531356   5.029112   0.532528  -0.039932  -0.038629
     4  C   -0.050218  -0.008692   0.532528   4.907383   0.532531  -0.008692
     5  C   -0.068481  -0.038629  -0.039932   0.532531   5.029107   0.531355
     6  C    0.507468  -0.017251  -0.038629  -0.008692   0.531355   4.670441
     7  H    0.005122  -0.040122   0.346102  -0.039099   0.004075   0.000603
     8  H    0.001328   0.002539  -0.036164   0.364188  -0.036164   0.002539
     9  H    0.005122   0.000603   0.004075  -0.039100   0.346101  -0.040123
    10  C    0.007282  -0.000023   0.000001   0.000142  -0.006232  -0.049114
    11  C    0.009311   0.003095  -0.000083   0.000032   0.003445  -0.072378
    12  C   -0.000782   0.000001  -0.000000   0.000000   0.000129   0.007674
    13  C    0.000134   0.000001  -0.000002   0.000053   0.002207  -0.003965
    14  C    0.000001  -0.000000   0.000000  -0.000000   0.000003  -0.000020
    15  C    0.000002  -0.000000   0.000000  -0.000001   0.000083   0.000068
    16  H   -0.000032   0.000001   0.000001   0.000109   0.000190   0.000648
    17  C    0.000000   0.000000  -0.000000   0.000000  -0.000001  -0.000006
    18  H   -0.000000   0.000000   0.000000   0.000000  -0.000000   0.000003
    19  H   -0.000000   0.000000  -0.000000   0.000000   0.000002  -0.000002
    20  H    0.000000  -0.000000   0.000000  -0.000000  -0.000000  -0.000000
    21  C    0.007282  -0.049113  -0.006232   0.000142   0.000001  -0.000023
    22  C    0.009312  -0.072377   0.003445   0.000032  -0.000083   0.003095
    23  C   -0.000782   0.007675   0.000129   0.000000  -0.000000   0.000001
    24  C    0.000134  -0.003965   0.002207   0.000053  -0.000002   0.000001
    25  C    0.000001  -0.000020   0.000003  -0.000000   0.000000  -0.000000
    26  C    0.000002   0.000068   0.000083  -0.000001   0.000000  -0.000000
    27  H   -0.000032   0.000648   0.000190   0.000109   0.000001   0.000001
    28  C    0.000000  -0.000006  -0.000001   0.000000  -0.000000   0.000000
    29  H   -0.000000   0.000003  -0.000000   0.000000   0.000000   0.000000
    30  H   -0.000000  -0.000002   0.000002   0.000000  -0.000000   0.000000
    31  H    0.000000  -0.000000  -0.000000  -0.000000   0.000000  -0.000000
    32  N   -0.034474   0.247854  -0.071651   0.004528   0.000522   0.006164
    33  N    0.002062   0.006257  -0.000160   0.000002   0.000000  -0.000042
    34  N   -0.034473   0.006164   0.000522   0.004528  -0.071650   0.247856
    35  N    0.002062  -0.000042   0.000000   0.000002  -0.000160   0.006257
    36  C   -0.000018   0.000000   0.000000  -0.000000   0.000002  -0.000045
    37  H   -0.000001  -0.000000   0.000000   0.000000  -0.000000   0.000004
    38  H   -0.000001  -0.000000   0.000000   0.000000  -0.000000   0.000004
    39  H   -0.000017   0.000001   0.000000  -0.000000   0.000000  -0.000010
    40  C   -0.000018  -0.000045   0.000002  -0.000000   0.000000   0.000000
    41  H   -0.000001   0.000004  -0.000000   0.000000   0.000000  -0.000000
    42  H   -0.000001   0.000004  -0.000000   0.000000   0.000000  -0.000000
    43  H   -0.000017  -0.000010   0.000000  -0.000000   0.000000   0.000001
    44  Co   0.247483  -0.070243   0.006066   0.001047   0.006066  -0.070243
               7          8          9         10         11         12
     1  C    0.005122   0.001328   0.005122   0.007282   0.009311  -0.000782
     2  C   -0.040122   0.002539   0.000603  -0.000023   0.003095   0.000001
     3  C    0.346102  -0.036164   0.004075   0.000001  -0.000083  -0.000000
     4  C   -0.039099   0.364188  -0.039100   0.000142   0.000032   0.000000
     5  C    0.004075  -0.036164   0.346101  -0.006232   0.003445   0.000129
     6  C    0.000603   0.002539  -0.040123  -0.049114  -0.072378   0.007674
     7  H    0.565807  -0.004435  -0.000106  -0.000000  -0.000000   0.000000
     8  H   -0.004435   0.556101  -0.004435  -0.000003   0.000001  -0.000000
     9  H   -0.000106  -0.004435   0.565808   0.000376  -0.000186  -0.000038
    10  C   -0.000000  -0.000003   0.000376   4.648021  -0.068606   0.513491
    11  C   -0.000000   0.000001  -0.000186  -0.068606   4.817329  -0.054952
    12  C    0.000000  -0.000000  -0.000038   0.513491  -0.054952   4.668429
    13  C   -0.000000   0.000003  -0.000266   0.534665   0.004465  -0.056778
    14  C   -0.000000   0.000000   0.000000  -0.048615   0.004973   0.532066
    15  C   -0.000000   0.000000   0.000139  -0.006512  -0.000053  -0.037698
    16  H   -0.000000  -0.000011   0.006375  -0.033398  -0.000154   0.003723
    17  C    0.000000  -0.000000   0.000001  -0.038933  -0.000056  -0.009233
    18  H    0.000000  -0.000000  -0.000000   0.003845  -0.000212  -0.037877
    19  H    0.000000   0.000000  -0.000009   0.001976   0.000003   0.000921
    20  H   -0.000000  -0.000000   0.000000   0.000882   0.000003   0.002311
    21  C    0.000376  -0.000003  -0.000000  -0.000000  -0.000008   0.000000
    22  C   -0.000186   0.000001  -0.000000  -0.000008  -0.016596  -0.000002
    23  C   -0.000038  -0.000000   0.000000   0.000000  -0.000002  -0.000000
    24  C   -0.000266   0.000003  -0.000000   0.000000   0.000000  -0.000000
    25  C    0.000000   0.000000  -0.000000  -0.000000   0.000000   0.000000
    26  C    0.000139   0.000000  -0.000000  -0.000000  -0.000000   0.000000
    27  H    0.006375  -0.000011  -0.000000   0.000000   0.000000  -0.000000
    28  C    0.000001  -0.000000   0.000000   0.000000  -0.000000  -0.000000
    29  H   -0.000000  -0.000000   0.000000   0.000000   0.000000  -0.000000
    30  H   -0.000009   0.000000   0.000000   0.000000   0.000000   0.000000
    31  H    0.000000  -0.000000  -0.000000   0.000000   0.000000   0.000000
    32  N   -0.004122  -0.000110   0.000007   0.000000   0.000384   0.000000
    33  N    0.000001  -0.000000  -0.000000  -0.000000   0.000035   0.000000
    34  N    0.000007  -0.000110  -0.004122   0.261346   0.355984  -0.041479
    35  N   -0.000000  -0.000000   0.000001  -0.045783   0.308024   0.264666
    36  C   -0.000000   0.000000  -0.000000   0.005676  -0.043866  -0.049464
    37  H    0.000000  -0.000000   0.000000  -0.000139   0.000519  -0.001217
    38  H    0.000000  -0.000000   0.000000  -0.000139   0.000513  -0.001213
    39  H    0.000000   0.000000   0.000000   0.000014   0.000579   0.002653
    40  C   -0.000000   0.000000  -0.000000   0.000000   0.000016   0.000000
    41  H    0.000000  -0.000000   0.000000  -0.000000  -0.000000  -0.000000
    42  H    0.000000  -0.000000   0.000000  -0.000000  -0.000000  -0.000000
    43  H    0.000000   0.000000   0.000000   0.000000  -0.000003  -0.000000
    44  Co  -0.000367   0.000176  -0.000367   0.006975   0.351739   0.005748
              13         14         15         16         17         18
     1  C    0.000134   0.000001   0.000002  -0.000032   0.000000  -0.000000
     2  C    0.000001  -0.000000  -0.000000   0.000001   0.000000   0.000000
     3  C   -0.000002   0.000000   0.000000   0.000001  -0.000000   0.000000
     4  C    0.000053  -0.000000  -0.000001   0.000109   0.000000   0.000000
     5  C    0.002207   0.000003   0.000083   0.000190  -0.000001  -0.000000
     6  C   -0.003965  -0.000020   0.000068   0.000648  -0.000006   0.000003
     7  H   -0.000000  -0.000000  -0.000000  -0.000000   0.000000   0.000000
     8  H    0.000003   0.000000   0.000000  -0.000011  -0.000000  -0.000000
     9  H   -0.000266   0.000000   0.000139   0.006375   0.000001  -0.000000
    10  C    0.534665  -0.048615  -0.006512  -0.033398  -0.038933   0.003845
    11  C    0.004465   0.004973  -0.000053  -0.000154  -0.000056  -0.000212
    12  C   -0.056778   0.532066  -0.037698   0.003723  -0.009233  -0.037877
    13  C    5.021704  -0.044370   0.512418   0.355847  -0.035964   0.000266
    14  C   -0.044370   5.024566  -0.037490   0.000433   0.519981   0.362305
    15  C    0.512418  -0.037490   4.896987  -0.035887   0.553594   0.003865
    16  H    0.355847   0.000433  -0.035887   0.511033   0.003686   0.000013
    17  C   -0.035964   0.519981   0.553594   0.003686   4.889159  -0.035386
    18  H    0.000266   0.362305   0.003865   0.000013  -0.035386   0.533093
    19  H   -0.035745   0.003996   0.369275  -0.003979  -0.036116  -0.000146
    20  H    0.003997  -0.036810  -0.036360  -0.000147   0.368499  -0.004202
    21  C    0.000000  -0.000000  -0.000000   0.000000   0.000000   0.000000
    22  C    0.000000   0.000000  -0.000000   0.000000  -0.000000   0.000000
    23  C   -0.000000   0.000000   0.000000  -0.000000  -0.000000  -0.000000
    24  C    0.000000  -0.000000   0.000000   0.000000   0.000000   0.000000
    25  C   -0.000000  -0.000000   0.000000  -0.000000  -0.000000   0.000000
    26  C    0.000000   0.000000  -0.000000   0.000000  -0.000000   0.000000
    27  H    0.000000  -0.000000   0.000000   0.000000   0.000000  -0.000000
    28  C    0.000000  -0.000000  -0.000000   0.000000   0.000000   0.000000
    29  H    0.000000   0.000000   0.000000  -0.000000   0.000000  -0.000000
    30  H   -0.000000  -0.000000   0.000000  -0.000000   0.000000   0.000000
    31  H   -0.000000   0.000000   0.000000  -0.000000   0.000000   0.000000
    32  N   -0.000000   0.000000   0.000000   0.000000   0.000000  -0.000000
    33  N    0.000000  -0.000000  -0.000000   0.000000   0.000000  -0.000000
    34  N   -0.076537   0.009197   0.005067  -0.004914  -0.000197  -0.000092
    35  N    0.009602  -0.081898  -0.000177  -0.000096   0.005332  -0.007126
    36  C   -0.000119  -0.002729   0.000010   0.000003  -0.000112   0.004196
    37  H   -0.000010   0.002650  -0.000002  -0.000000  -0.000004   0.000538
    38  H   -0.000010   0.002647  -0.000002  -0.000000  -0.000004   0.000537
    39  H    0.000006   0.000021  -0.000000  -0.000000   0.000001  -0.000034
    40  C    0.000000   0.000000  -0.000000   0.000000   0.000000  -0.000000
    41  H   -0.000000  -0.000000   0.000000  -0.000000   0.000000  -0.000000
    42  H   -0.000000  -0.000000   0.000000  -0.000000   0.000000  -0.000000
    43  H    0.000000   0.000000  -0.000000   0.000000  -0.000000   0.000000
    44  Co  -0.001343  -0.001344   0.000182   0.000040   0.000144   0.000021
              19         20         21         22         23         24
     1  C   -0.000000   0.000000   0.007282   0.009312  -0.000782   0.000134
     2  C    0.000000  -0.000000  -0.049113  -0.072377   0.007675  -0.003965
     3  C   -0.000000   0.000000  -0.006232   0.003445   0.000129   0.002207
     4  C    0.000000  -0.000000   0.000142   0.000032   0.000000   0.000053
     5  C    0.000002  -0.000000   0.000001  -0.000083  -0.000000  -0.000002
     6  C   -0.000002  -0.000000  -0.000023   0.003095   0.000001   0.000001
     7  H    0.000000  -0.000000   0.000376  -0.000186  -0.000038  -0.000266
     8  H    0.000000  -0.000000  -0.000003   0.000001  -0.000000   0.000003
     9  H   -0.000009   0.000000  -0.000000  -0.000000   0.000000  -0.000000
    10  C    0.001976   0.000882  -0.000000  -0.000008   0.000000   0.000000
    11  C    0.000003   0.000003  -0.000008  -0.016596  -0.000002   0.000000
    12  C    0.000921   0.002311   0.000000  -0.000002  -0.000000  -0.000000
    13  C   -0.035745   0.003997   0.000000   0.000000  -0.000000   0.000000
    14  C    0.003996  -0.036810  -0.000000   0.000000   0.000000  -0.000000
    15  C    0.369275  -0.036360  -0.000000  -0.000000   0.000000   0.000000
    16  H   -0.003979  -0.000147   0.000000   0.000000  -0.000000   0.000000
    17  C   -0.036116   0.368499   0.000000  -0.000000  -0.000000   0.000000
    18  H   -0.000146  -0.004202   0.000000   0.000000  -0.000000   0.000000
    19  H    0.530940  -0.004578   0.000000   0.000000   0.000000  -0.000000
    20  H   -0.004578   0.535503   0.000000   0.000000   0.000000  -0.000000
    21  C    0.000000   0.000000   4.647998  -0.068604   0.513491   0.534669
    22  C    0.000000   0.000000  -0.068604   4.817334  -0.054952   0.004465
    23  C    0.000000   0.000000   0.513491  -0.054952   4.668444  -0.056779
    24  C   -0.000000  -0.000000   0.534669   0.004465  -0.056779   5.021719
    25  C   -0.000000   0.000000  -0.048615   0.004973   0.532065  -0.044371
    26  C    0.000000   0.000000  -0.006512  -0.000053  -0.037698   0.512414
    27  H   -0.000000  -0.000000  -0.033397  -0.000154   0.003723   0.355845
    28  C    0.000000   0.000000  -0.038933  -0.000056  -0.009233  -0.035963
    29  H    0.000000   0.000000   0.003845  -0.000212  -0.037877   0.000266
    30  H    0.000000   0.000000   0.001976   0.000003   0.000921  -0.035745
    31  H    0.000000   0.000000   0.000882   0.000003   0.002311   0.003998
    32  N   -0.000000   0.000000   0.261342   0.355985  -0.041477  -0.076540
    33  N   -0.000000  -0.000000  -0.045783   0.308019   0.264667   0.009602
    34  N   -0.000091   0.000003   0.000000   0.000384   0.000000  -0.000000
    35  N    0.000004  -0.000098  -0.000000   0.000035   0.000000   0.000000
    36  C   -0.000000  -0.000002   0.000000   0.000016   0.000000   0.000000
    37  H   -0.000000  -0.000000  -0.000000  -0.000000  -0.000000  -0.000000
    38  H   -0.000000  -0.000000  -0.000000  -0.000000  -0.000000  -0.000000
    39  H   -0.000000  -0.000000   0.000000  -0.000003  -0.000000   0.000000
    40  C    0.000000  -0.000000   0.005676  -0.043865  -0.049464  -0.000119
    41  H   -0.000000  -0.000000  -0.000139   0.000513  -0.001213  -0.000010
    42  H   -0.000000  -0.000000  -0.000139   0.000519  -0.001217  -0.000010
    43  H   -0.000000   0.000000   0.000014   0.000578   0.002653   0.000006
    44  Co   0.000015  -0.000009   0.006974   0.351739   0.005748  -0.001343
              25         26         27         28         29         30
     1  C    0.000001   0.000002  -0.000032   0.000000  -0.000000  -0.000000
     2  C   -0.000020   0.000068   0.000648  -0.000006   0.000003  -0.000002
     3  C    0.000003   0.000083   0.000190  -0.000001  -0.000000   0.000002
     4  C   -0.000000  -0.000001   0.000109   0.000000   0.000000   0.000000
     5  C    0.000000   0.000000   0.000001  -0.000000   0.000000  -0.000000
     6  C   -0.000000  -0.000000   0.000001   0.000000   0.000000   0.000000
     7  H    0.000000   0.000139   0.006375   0.000001  -0.000000  -0.000009
     8  H    0.000000   0.000000  -0.000011  -0.000000  -0.000000   0.000000
     9  H   -0.000000  -0.000000  -0.000000   0.000000   0.000000   0.000000
    10  C   -0.000000  -0.000000   0.000000   0.000000   0.000000   0.000000
    11  C    0.000000  -0.000000   0.000000  -0.000000   0.000000   0.000000
    12  C    0.000000   0.000000  -0.000000  -0.000000  -0.000000   0.000000
    13  C   -0.000000   0.000000   0.000000   0.000000   0.000000  -0.000000
    14  C   -0.000000   0.000000  -0.000000  -0.000000   0.000000  -0.000000
    15  C    0.000000  -0.000000   0.000000  -0.000000   0.000000   0.000000
    16  H   -0.000000   0.000000   0.000000   0.000000  -0.000000  -0.000000
    17  C   -0.000000  -0.000000   0.000000   0.000000   0.000000   0.000000
    18  H    0.000000   0.000000  -0.000000   0.000000  -0.000000   0.000000
    19  H   -0.000000   0.000000  -0.000000   0.000000   0.000000   0.000000
    20  H    0.000000   0.000000  -0.000000   0.000000   0.000000   0.000000
    21  C   -0.048615  -0.006512  -0.033397  -0.038933   0.003845   0.001976
    22  C    0.004973  -0.000053  -0.000154  -0.000056  -0.000212   0.000003
    23  C    0.532065  -0.037698   0.003723  -0.009233  -0.037877   0.000921
    24  C   -0.044371   0.512414   0.355845  -0.035963   0.000266  -0.035745
    25  C    5.024556  -0.037491   0.000434   0.519984   0.362306   0.003996
    26  C   -0.037491   4.896987  -0.035887   0.553595   0.003865   0.369276
    27  H    0.000434  -0.035887   0.511034   0.003686   0.000013  -0.003979
    28  C    0.519984   0.553595   0.003686   4.889158  -0.035387  -0.036115
    29  H    0.362306   0.003865   0.000013  -0.035387   0.533092  -0.000146
    30  H    0.003996   0.369276  -0.003979  -0.036115  -0.000146   0.530937
    31  H   -0.036811  -0.036360  -0.000147   0.368498  -0.004202  -0.004578
    32  N    0.009197   0.005067  -0.004914  -0.000197  -0.000092  -0.000091
    33  N   -0.081896  -0.000177  -0.000096   0.005332  -0.007126   0.000004
    34  N    0.000000   0.000000   0.000000   0.000000  -0.000000  -0.000000
    35  N   -0.000000  -0.000000   0.000000   0.000000  -0.000000  -0.000000
    36  C    0.000000  -0.000000   0.000000   0.000000  -0.000000   0.000000
    37  H   -0.000000   0.000000  -0.000000   0.000000  -0.000000  -0.000000
    38  H   -0.000000   0.000000  -0.000000   0.000000  -0.000000  -0.000000
    39  H    0.000000  -0.000000   0.000000  -0.000000   0.000000  -0.000000
    40  C   -0.002729   0.000010   0.000003  -0.000112   0.004196  -0.000000
    41  H    0.002647  -0.000002  -0.000000  -0.000004   0.000537  -0.000000
    42  H    0.002650  -0.000002  -0.000000  -0.000004   0.000538  -0.000000
    43  H    0.000021  -0.000000  -0.000000   0.000001  -0.000034  -0.000000
    44  Co  -0.001344   0.000182   0.000040   0.000144   0.000021   0.000015
              31         32         33         34         35         36
     1  C    0.000000  -0.034474   0.002062  -0.034473   0.002062  -0.000018
     2  C   -0.000000   0.247854   0.006257   0.006164  -0.000042   0.000000
     3  C   -0.000000  -0.071651  -0.000160   0.000522   0.000000   0.000000
     4  C   -0.000000   0.004528   0.000002   0.004528   0.000002  -0.000000
     5  C    0.000000   0.000522   0.000000  -0.071650  -0.000160   0.000002
     6  C   -0.000000   0.006164  -0.000042   0.247856   0.006257  -0.000045
     7  H    0.000000  -0.004122   0.000001   0.000007  -0.000000  -0.000000
     8  H   -0.000000  -0.000110  -0.000000  -0.000110  -0.000000   0.000000
     9  H   -0.000000   0.000007  -0.000000  -0.004122   0.000001  -0.000000
    10  C    0.000000   0.000000  -0.000000   0.261346  -0.045783   0.005676
    11  C    0.000000   0.000384   0.000035   0.355984   0.308024  -0.043866
    12  C    0.000000   0.000000   0.000000  -0.041479   0.264666  -0.049464
    13  C   -0.000000  -0.000000   0.000000  -0.076537   0.009602  -0.000119
    14  C    0.000000   0.000000  -0.000000   0.009197  -0.081898  -0.002729
    15  C    0.000000   0.000000  -0.000000   0.005067  -0.000177   0.000010
    16  H   -0.000000   0.000000   0.000000  -0.004914  -0.000096   0.000003
    17  C    0.000000   0.000000   0.000000  -0.000197   0.005332  -0.000112
    18  H    0.000000  -0.000000  -0.000000  -0.000092  -0.007126   0.004196
    19  H    0.000000  -0.000000  -0.000000  -0.000091   0.000004  -0.000000
    20  H    0.000000   0.000000  -0.000000   0.000003  -0.000098  -0.000002
    21  C    0.000882   0.261342  -0.045783   0.000000  -0.000000   0.000000
    22  C    0.000003   0.355985   0.308019   0.000384   0.000035   0.000016
    23  C    0.002311  -0.041477   0.264667   0.000000   0.000000   0.000000
    24  C    0.003998  -0.076540   0.009602  -0.000000   0.000000   0.000000
    25  C   -0.036811   0.009197  -0.081896   0.000000  -0.000000   0.000000
    26  C   -0.036360   0.005067  -0.000177   0.000000  -0.000000  -0.000000
    27  H   -0.000147  -0.004914  -0.000096   0.000000   0.000000   0.000000
    28  C    0.368498  -0.000197   0.005332   0.000000   0.000000   0.000000
    29  H   -0.004202  -0.000092  -0.007126  -0.000000  -0.000000  -0.000000
    30  H   -0.004578  -0.000091   0.000004  -0.000000  -0.000000   0.000000
    31  H    0.535507   0.000003  -0.000098   0.000000  -0.000000  -0.000000
    32  N    0.000003   7.185403  -0.062537  -0.000145   0.000001  -0.000000
    33  N   -0.000098  -0.062537   7.063704   0.000001  -0.000000  -0.000000
    34  N    0.000000  -0.000145   0.000001   7.185386  -0.062537   0.004757
    35  N   -0.000000   0.000001  -0.000000  -0.062537   7.063707   0.299095
    36  C   -0.000000  -0.000000  -0.000000   0.004757   0.299095   5.059767
    37  H   -0.000000   0.000000   0.000000  -0.000065  -0.042045   0.377508
    38  H   -0.000000   0.000000   0.000000  -0.000065  -0.042047   0.377514
    39  H    0.000000  -0.000000   0.000001   0.000154  -0.032018   0.376596
    40  C   -0.000002   0.004757   0.299097  -0.000000  -0.000000   0.000000
    41  H   -0.000000  -0.000065  -0.042049   0.000000   0.000000  -0.000000
    42  H   -0.000000  -0.000065  -0.042046   0.000000   0.000000  -0.000000
    43  H   -0.000000   0.000154  -0.032019  -0.000000   0.000001  -0.000001
    44  Co  -0.000009  -0.075229  -0.054375  -0.075229  -0.054375  -0.006119
              37         38         39         40         41         42
     1  C   -0.000001  -0.000001  -0.000017  -0.000018  -0.000001  -0.000001
     2  C   -0.000000  -0.000000   0.000001  -0.000045   0.000004   0.000004
     3  C    0.000000   0.000000   0.000000   0.000002  -0.000000  -0.000000
     4  C    0.000000   0.000000  -0.000000  -0.000000   0.000000   0.000000
     5  C   -0.000000  -0.000000   0.000000   0.000000   0.000000   0.000000
     6  C    0.000004   0.000004  -0.000010   0.000000  -0.000000  -0.000000
     7  H    0.000000   0.000000   0.000000  -0.000000   0.000000   0.000000
     8  H   -0.000000  -0.000000   0.000000   0.000000  -0.000000  -0.000000
     9  H    0.000000   0.000000   0.000000  -0.000000   0.000000   0.000000
    10  C   -0.000139  -0.000139   0.000014   0.000000  -0.000000  -0.000000
    11  C    0.000519   0.000513   0.000579   0.000016  -0.000000  -0.000000
    12  C   -0.001217  -0.001213   0.002653   0.000000  -0.000000  -0.000000
    13  C   -0.000010  -0.000010   0.000006   0.000000  -0.000000  -0.000000
    14  C    0.002650   0.002647   0.000021   0.000000  -0.000000  -0.000000
    15  C   -0.000002  -0.000002  -0.000000  -0.000000   0.000000   0.000000
    16  H   -0.000000  -0.000000  -0.000000   0.000000  -0.000000  -0.000000
    17  C   -0.000004  -0.000004   0.000001   0.000000   0.000000   0.000000
    18  H    0.000538   0.000537  -0.000034  -0.000000  -0.000000  -0.000000
    19  H   -0.000000  -0.000000  -0.000000   0.000000  -0.000000  -0.000000
    20  H   -0.000000  -0.000000  -0.000000  -0.000000  -0.000000  -0.000000
    21  C   -0.000000  -0.000000   0.000000   0.005676  -0.000139  -0.000139
    22  C   -0.000000  -0.000000  -0.000003  -0.043865   0.000513   0.000519
    23  C   -0.000000  -0.000000  -0.000000  -0.049464  -0.001213  -0.001217
    24  C   -0.000000  -0.000000   0.000000  -0.000119  -0.000010  -0.000010
    25  C   -0.000000  -0.000000   0.000000  -0.002729   0.002647   0.002650
    26  C    0.000000   0.000000  -0.000000   0.000010  -0.000002  -0.000002
    27  H   -0.000000  -0.000000   0.000000   0.000003  -0.000000  -0.000000
    28  C    0.000000   0.000000  -0.000000  -0.000112  -0.000004  -0.000004
    29  H   -0.000000  -0.000000   0.000000   0.004196   0.000537   0.000538
    30  H   -0.000000  -0.000000  -0.000000  -0.000000  -0.000000  -0.000000
    31  H   -0.000000  -0.000000   0.000000  -0.000002  -0.000000  -0.000000
    32  N    0.000000   0.000000  -0.000000   0.004757  -0.000065  -0.000065
    33  N    0.000000   0.000000   0.000001   0.299097  -0.042049  -0.042046
    34  N   -0.000065  -0.000065   0.000154  -0.000000   0.000000   0.000000
    35  N   -0.042045  -0.042047  -0.032018  -0.000000   0.000000   0.000000
    36  C    0.377508   0.377514   0.376596   0.000000  -0.000000  -0.000000
    37  H    0.524918  -0.040224  -0.024922  -0.000000   0.000000  -0.000000
    38  H   -0.040224   0.524914  -0.024928  -0.000000  -0.000000   0.000000
    39  H   -0.024922  -0.024928   0.470174  -0.000001   0.000000   0.000000
    40  C   -0.000000  -0.000000  -0.000001   5.059766   0.377514   0.377508
    41  H    0.000000  -0.000000   0.000000   0.377514   0.524919  -0.040225
    42  H   -0.000000   0.000000   0.000000   0.377508  -0.040225   0.524923
    43  H    0.000000   0.000000  -0.000025   0.376596  -0.024929  -0.024921
    44  Co   0.000544   0.000547   0.007899  -0.006118   0.000547   0.000544
              43         44
     1  C   -0.000017   0.247483
     2  C   -0.000010  -0.070243
     3  C    0.000000   0.006066
     4  C   -0.000000   0.001047
     5  C    0.000000   0.006066
     6  C    0.000001  -0.070243
     7  H    0.000000  -0.000367
     8  H    0.000000   0.000176
     9  H    0.000000  -0.000367
    10  C    0.000000   0.006975
    11  C   -0.000003   0.351739
    12  C   -0.000000   0.005748
    13  C    0.000000  -0.001343
    14  C    0.000000  -0.001344
    15  C   -0.000000   0.000182
    16  H    0.000000   0.000040
    17  C   -0.000000   0.000144
    18  H    0.000000   0.000021
    19  H   -0.000000   0.000015
    20  H    0.000000  -0.000009
    21  C    0.000014   0.006974
    22  C    0.000578   0.351739
    23  C    0.002653   0.005748
    24  C    0.000006  -0.001343
    25  C    0.000021  -0.001344
    26  C   -0.000000   0.000182
    27  H   -0.000000   0.000040
    28  C    0.000001   0.000144
    29  H   -0.000034   0.000021
    30  H   -0.000000   0.000015
    31  H   -0.000000  -0.000009
    32  N    0.000154  -0.075229
    33  N   -0.032019  -0.054375
    34  N   -0.000000  -0.075229
    35  N    0.000001  -0.054375
    36  C   -0.000001  -0.006119
    37  H    0.000000   0.000544
    38  H    0.000000   0.000547
    39  H   -0.000025   0.007899
    40  C    0.376596  -0.006118
    41  H   -0.024929   0.000547
    42  H   -0.024921   0.000544
    43  H    0.470175   0.007899
    44  Co   0.007899  16.451566
          Atomic-Atomic Spin Densities.
               1          2          3          4          5          6
     1  C   -0.000000   0.000000   0.000000  -0.000000   0.000000   0.000000
     2  C    0.000000  -0.000000   0.000000   0.000000   0.000000  -0.000000
     3  C    0.000000   0.000000  -0.000000  -0.000000   0.000000   0.000000
     4  C   -0.000000   0.000000  -0.000000  -0.000000  -0.000000   0.000000
     5  C    0.000000   0.000000   0.000000  -0.000000  -0.000000   0.000000
     6  C    0.000000  -0.000000   0.000000   0.000000   0.000000  -0.000000
     7  H    0.000000  -0.000000   0.000000  -0.000000   0.000000  -0.000000
     8  H   -0.000000  -0.000000   0.000000   0.000000   0.000000  -0.000000
     9  H    0.000000  -0.000000   0.000000  -0.000000   0.000000  -0.000000
    10  C    0.000000  -0.000000  -0.000000   0.000000   0.000000   0.000000
    11  C    0.000000   0.000000   0.000000  -0.000000  -0.000000   0.000000
    12  C    0.000000   0.000000   0.000000  -0.000000   0.000000   0.000000
    13  C   -0.000000   0.000000   0.000000  -0.000000  -0.000000   0.000000
    14  C   -0.000000  -0.000000  -0.000000  -0.000000  -0.000000   0.000000
    15  C    0.000000   0.000000  -0.000000   0.000000   0.000000  -0.000000
    16  H   -0.000000  -0.000000   0.000000   0.000000   0.000000   0.000000
    17  C    0.000000  -0.000000  -0.000000   0.000000   0.000000  -0.000000
    18  H   -0.000000  -0.000000   0.000000  -0.000000  -0.000000   0.000000
    19  H   -0.000000  -0.000000   0.000000   0.000000   0.000000   0.000000
    20  H   -0.000000  -0.000000  -0.000000   0.000000   0.000000  -0.000000
    21  C    0.000000   0.000000   0.000000   0.000000  -0.000000  -0.000000
    22  C    0.000000   0.000000  -0.000000  -0.000000   0.000000   0.000000
    23  C    0.000000   0.000000   0.000000  -0.000000   0.000000   0.000000
    24  C   -0.000000   0.000000  -0.000000  -0.000000   0.000000   0.000000
    25  C   -0.000000   0.000000  -0.000000  -0.000000  -0.000000  -0.000000
    26  C    0.000000  -0.000000   0.000000   0.000000  -0.000000   0.000000
    27  H   -0.000000   0.000000   0.000000   0.000000   0.000000  -0.000000
    28  C    0.000000  -0.000000   0.000000   0.000000  -0.000000  -0.000000
    29  H   -0.000000   0.000000  -0.000000  -0.000000   0.000000  -0.000000
    30  H   -0.000000   0.000000   0.000000   0.000000   0.000000  -0.000000
    31  H   -0.000000  -0.000000   0.000000   0.000000  -0.000000  -0.000000
    32  N    0.000000  -0.000000   0.000000   0.000000   0.000000  -0.000000
    33  N    0.000000  -0.000000   0.000000   0.000000  -0.000000  -0.000000
    34  N    0.000000  -0.000000   0.000000   0.000000   0.000000  -0.000000
    35  N    0.000000  -0.000000  -0.000000   0.000000   0.000000  -0.000000
    36  C   -0.000000  -0.000000  -0.000000   0.000000  -0.000000  -0.000000
    37  H   -0.000000   0.000000   0.000000  -0.000000  -0.000000   0.000000
    38  H   -0.000000   0.000000   0.000000  -0.000000  -0.000000   0.000000
    39  H    0.000000   0.000000   0.000000  -0.000000   0.000000   0.000000
    40  C   -0.000000  -0.000000  -0.000000   0.000000  -0.000000  -0.000000
    41  H   -0.000000   0.000000  -0.000000  -0.000000   0.000000   0.000000
    42  H   -0.000000   0.000000  -0.000000  -0.000000   0.000000   0.000000
    43  H    0.000000   0.000000   0.000000  -0.000000   0.000000   0.000000
    44  Co  -0.000000   0.000000  -0.000000  -0.000000  -0.000000   0.000000
               7          8          9         10         11         12
     1  C    0.000000  -0.000000   0.000000   0.000000   0.000000   0.000000
     2  C   -0.000000  -0.000000  -0.000000  -0.000000   0.000000   0.000000
     3  C    0.000000   0.000000   0.000000  -0.000000   0.000000   0.000000
     4  C   -0.000000   0.000000  -0.000000   0.000000  -0.000000  -0.000000
     5  C    0.000000   0.000000   0.000000   0.000000  -0.000000   0.000000
     6  C   -0.000000  -0.000000  -0.000000   0.000000   0.000000   0.000000
     7  H   -0.000000  -0.000000  -0.000000  -0.000000  -0.000000   0.000000
     8  H   -0.000000   0.000000  -0.000000  -0.000000   0.000000   0.000000
     9  H   -0.000000  -0.000000  -0.000000  -0.000000   0.000000  -0.000000
    10  C   -0.000000  -0.000000  -0.000000   0.000000  -0.000000   0.000000
    11  C   -0.000000   0.000000   0.000000  -0.000000  -0.000001   0.000000
    12  C    0.000000   0.000000  -0.000000   0.000000   0.000000   0.000000
    13  C    0.000000   0.000000   0.000000  -0.000000  -0.000000  -0.000000
    14  C    0.000000   0.000000   0.000000  -0.000000  -0.000000  -0.000000
    15  C    0.000000   0.000000   0.000000   0.000000   0.000000  -0.000000
    16  H   -0.000000  -0.000000  -0.000000   0.000000   0.000000   0.000000
    17  C   -0.000000  -0.000000  -0.000000  -0.000000   0.000000   0.000000
    18  H    0.000000  -0.000000   0.000000   0.000000   0.000000   0.000000
    19  H   -0.000000  -0.000000  -0.000000  -0.000000   0.000000   0.000000
    20  H   -0.000000  -0.000000  -0.000000  -0.000000  -0.000000  -0.000000
    21  C   -0.000000  -0.000000  -0.000000  -0.000000  -0.000000  -0.000000
    22  C    0.000000   0.000000  -0.000000  -0.000000  -0.000000   0.000000
    23  C   -0.000000   0.000000   0.000000  -0.000000   0.000000   0.000000
    24  C    0.000000   0.000000   0.000000   0.000000   0.000000   0.000000
    25  C    0.000000   0.000000   0.000000   0.000000   0.000000   0.000000
    26  C    0.000000   0.000000   0.000000   0.000000  -0.000000  -0.000000
    27  H   -0.000000  -0.000000  -0.000000  -0.000000   0.000000   0.000000
    28  C   -0.000000  -0.000000  -0.000000  -0.000000  -0.000000  -0.000000
    29  H    0.000000  -0.000000   0.000000  -0.000000   0.000000   0.000000
    30  H   -0.000000  -0.000000  -0.000000  -0.000000   0.000000   0.000000
    31  H   -0.000000  -0.000000  -0.000000   0.000000   0.000000  -0.000000
    32  N   -0.000000  -0.000000  -0.000000  -0.000000  -0.000000  -0.000000
    33  N   -0.000000   0.000000  -0.000000   0.000000  -0.000000  -0.000000
    34  N   -0.000000  -0.000000  -0.000000  -0.000000   0.000000  -0.000000
    35  N   -0.000000   0.000000  -0.000000   0.000000   0.000000  -0.000000
    36  C    0.000000   0.000000   0.000000   0.000000  -0.000000  -0.000000
    37  H    0.000000   0.000000   0.000000  -0.000000  -0.000000   0.000000
    38  H    0.000000  -0.000000   0.000000  -0.000000  -0.000000   0.000000
    39  H    0.000000  -0.000000   0.000000   0.000000   0.000000   0.000000
    40  C    0.000000   0.000000   0.000000   0.000000  -0.000000  -0.000000
    41  H    0.000000  -0.000000   0.000000  -0.000000   0.000000   0.000000
    42  H    0.000000   0.000000   0.000000  -0.000000   0.000000   0.000000
    43  H    0.000000  -0.000000   0.000000  -0.000000   0.000000   0.000000
    44  Co   0.000000   0.000000   0.000000   0.000000  -0.000000   0.000000
              13         14         15         16         17         18
     1  C   -0.000000  -0.000000   0.000000  -0.000000   0.000000  -0.000000
     2  C    0.000000  -0.000000   0.000000  -0.000000  -0.000000  -0.000000
     3  C    0.000000  -0.000000  -0.000000   0.000000  -0.000000   0.000000
     4  C   -0.000000  -0.000000   0.000000   0.000000   0.000000  -0.000000
     5  C   -0.000000  -0.000000   0.000000   0.000000   0.000000  -0.000000
     6  C    0.000000   0.000000  -0.000000   0.000000  -0.000000   0.000000
     7  H    0.000000   0.000000   0.000000  -0.000000  -0.000000   0.000000
     8  H    0.000000   0.000000   0.000000  -0.000000  -0.000000  -0.000000
     9  H    0.000000   0.000000   0.000000  -0.000000  -0.000000   0.000000
    10  C   -0.000000  -0.000000   0.000000   0.000000  -0.000000   0.000000
    11  C   -0.000000  -0.000000   0.000000   0.000000   0.000000   0.000000
    12  C   -0.000000  -0.000000  -0.000000   0.000000   0.000000   0.000000
    13  C   -0.000000  -0.000000   0.000000  -0.000000   0.000000   0.000000
    14  C   -0.000000  -0.000000   0.000000   0.000000   0.000000  -0.000000
[...]
              Bcc     0.0000     0.000     0.000     0.000  0.9981 -0.0610  0.0105
 
              Baa    -0.0000    -0.000    -0.000    -0.000 -0.0239  0.9779 -0.2079
    41 H(1)   Bbb     0.0000     0.000     0.000     0.000  0.2991  0.2055  0.9318
              Bcc     0.0000     0.000     0.000     0.000  0.9539 -0.0399 -0.2974
 
              Baa    -0.0000    -0.000    -0.000    -0.000 -0.0214  0.9792  0.2017
    42 H(1)   Bbb     0.0000     0.000     0.000     0.000 -0.3127 -0.1982  0.9289
              Bcc     0.0000     0.000     0.000     0.000  0.9496 -0.0432  0.3105
 
              Baa    -0.0000    -0.000    -0.000    -0.000 -0.4068  0.9135 -0.0041
    43 H(1)   Bbb    -0.0000    -0.000    -0.000    -0.000 -0.0122 -0.0010  0.9999
              Bcc     0.0000     0.000     0.000     0.000  0.9134  0.4068  0.0115
 
              Baa    -0.0000    -0.001    -0.000    -0.000 -0.0000  0.9995  0.0322
    44 Co(59) Bbb    -0.0000    -0.000    -0.000    -0.000 -0.0002 -0.0322  0.9995
              Bcc     0.0000     0.001     0.000     0.000  1.0000 -0.0000  0.0002
 

 ---------------------------------------------------------------------------------

   1 Symmetry operations used in ECPInt.
 ECPInt:  NShTT=   11781 NPrTT=   71406 LenC2=    9542 LenP2D=   32125.
 LDataN:  DoStor=T MaxTD1= 7 Len=  274
 Calling FoFJK, ICntrl=      2127 FMM=F ISym2X=0 I1Cent= 0 IOpClX= 1 NMat=1 NMatS=1 NMatT=0.
 -------------------------------------------------------------------
 Center     Atomic                   Forces (Hartrees/Bohr)
 Number     Number              X              Y              Z
 -------------------------------------------------------------------
      1        6           0.000003483   -0.030531630    0.000003061
      2        6           0.067684015    0.031485161   -0.000003500
      3        6          -0.000695183    0.000214853    0.000002662
      4        6          -0.000004338    0.010166764   -0.000000965
      5        6           0.000702665    0.000212567    0.000002193
      6        6          -0.067694821    0.031490457   -0.000003970
      7        1           0.001050692    0.002815956   -0.000000090
      8        1           0.000000252   -0.004450997   -0.000000317
      9        1          -0.001052659    0.002815026   -0.000000125
     10        6          -0.007401016   -0.007008669   -0.000000393
     11        6           0.009371247    0.005689368   -0.000014048
     12        6           0.014732506    0.007101742   -0.000001413
     13        6           0.012415077    0.002256601   -0.000001214
     14        6          -0.001681934    0.004100541    0.000000211
     15        6          -0.014136624    0.005601760    0.000001732
     16        1          -0.000050613    0.000480877   -0.000000172
     17        6           0.001078657   -0.009718007   -0.000000237
     18        1           0.000373121    0.000579525    0.000000019
     19        1           0.001619945    0.001125264   -0.000000220
     20        1           0.000111024   -0.000162431   -0.000000044
     21        6           0.007411747   -0.007023638   -0.000002461
     22        6          -0.009378592    0.005686373   -0.000014543
     23        6          -0.014745502    0.007094094   -0.000000339
     24        6          -0.012427049    0.002274554   -0.000000213
     25        6           0.001698095    0.004102320    0.000000059
     26        6           0.014146199    0.005596928    0.000000803
     27        1           0.000049591    0.000475626   -0.000000192
     28        6          -0.001091959   -0.009714729   -0.000000286
     29        1          -0.000374589    0.000577185   -0.000000136
     30        1          -0.001622358    0.001128118   -0.000000124
     31        1          -0.000105774   -0.000161725    0.000000049
     32        7          -0.029639609   -0.056425883    0.000007357
     33        7           0.026186045    0.019859149    0.000008863
     34        7           0.029649079   -0.056432278    0.000003659
     35        7          -0.026179164    0.019840941    0.000010665
     36        6           0.000713699   -0.011987925   -0.000001898
     37        1           0.000181378    0.001020282    0.001148148
     38        1           0.000181231    0.001022802   -0.001149250
     39        1           0.000793056    0.002500777    0.000001099
     40        6          -0.000718046   -0.011997455   -0.000000975
     41        1          -0.000180218    0.001023067   -0.001150889
     42        1          -0.000180668    0.001020521    0.001149134
     43        1          -0.000792477    0.002501051    0.000001360
     44       27           0.000000393    0.023755114    0.000006939
 -------------------------------------------------------------------
 Cartesian Forces:  Max     0.067694821 RMS     0.013868390

 GradGradGradGradGradGradGradGradGradGradGradGradGradGradGradGradGradGrad
 Berny optimization.
 Search for a local minimum.
 Step number   1 out of a maximum of    2
 All quantities printed in internal units (Hartrees-Bohrs-Radians)
 Second derivative matrix not updated -- first step.
 ITU=  0
     Eigenvalues ---    0.00056   0.00063   0.00199   0.00249   0.00250
     Eigenvalues ---    0.00393   0.00454   0.00621   0.00669   0.00674
     Eigenvalues ---    0.00683   0.00844   0.00846   0.01332   0.01602
     Eigenvalues ---    0.01827   0.02012   0.02052   0.02551   0.02557
     Eigenvalues ---    0.03084   0.03251   0.04102   0.04202   0.04469
     Eigenvalues ---    0.04530   0.04707   0.05404   0.05541   0.06421
     Eigenvalues ---    0.06423   0.06908   0.06935   0.06992   0.07073
     Eigenvalues ---    0.07074   0.07277   0.07689   0.07754   0.09623
     Eigenvalues ---    0.10178   0.10434   0.10468   0.11786   0.11924
     Eigenvalues ---    0.11973   0.12297   0.12520   0.12834   0.13387
     Eigenvalues ---    0.13394   0.13517   0.13682   0.14835   0.15690
     Eigenvalues ---    0.15916   0.16205   0.19665   0.20295   0.20832
     Eigenvalues ---    0.21329   0.22299   0.24435   0.25823   0.28906
     Eigenvalues ---    0.29673   0.30746   0.30950   0.31014   0.31802
     Eigenvalues ---    0.32817   0.34976   0.36900   0.38612   0.38613
     Eigenvalues ---    0.38669   0.41399   0.42694   0.46197   0.48267
     Eigenvalues ---    0.48703   0.48874   0.49414   0.52122   0.53509
     Eigenvalues ---    0.54229   0.54869   0.57083   0.64097   0.69068
     Eigenvalues ---    0.71718   0.73672   0.74310   0.86784   0.87144
     Eigenvalues ---    0.90533   0.91737   0.94306   0.94612   0.95552
     Eigenvalues ---    0.95620   0.97383   1.01964   1.04639   1.13115
     Eigenvalues ---    1.15885   1.16641   1.18170   1.20903   1.25288
     Eigenvalues ---    1.31019   1.38362   1.38459   1.45556   1.47726
     Eigenvalues ---    1.49778   1.51715   1.52940   1.62092   1.65142
     Eigenvalues ---    1.66226   1.66573   1.77932   1.79550   1.86548
     Eigenvalues ---    1.87981
 Quadratic step=4.164D-01 exceeds max=3.000D-01 adjusted using Lamda=-4.990D-03.
 Angle between NR and scaled steps=  15.83 degrees.
 Angle between quadratic step and forces=  60.68 degrees.
 Linear search not attempted -- first point.
 B after Tr=    -0.000000   -0.002163   -0.000004
         Rot=    1.000000   -0.000000   -0.000000    0.000000 Ang=  -0.00 deg.
 Variable       Old X    -DE/DX   Delta X   Delta X   Delta X     New X
                                 (Linear)    (Quad)   (Total)
    X1        0.00000   0.00000   0.00000   0.00000   0.00000   0.00000
    Y1        1.33859  -0.03053   0.00000  -0.06490  -0.06706   1.27153
    Z1        0.00014   0.00000   0.00000  -0.00002  -0.00002   0.00012
    X2       -2.37761   0.06768   0.00000   0.08913   0.08913  -2.28848
    Y2        2.55373   0.03149   0.00000  -0.00286  -0.00502   2.54871
    Z2        0.00009  -0.00000   0.00000  -0.00001  -0.00001   0.00008
    X3       -2.34935  -0.00070   0.00000   0.03632   0.03632  -2.31303
    Y3        5.18937   0.00021   0.00000   0.00960   0.00743   5.19680
    Z3       -0.00001   0.00000   0.00000   0.00002   0.00002   0.00002
    X4        0.00001  -0.00000   0.00000  -0.00000  -0.00000   0.00000
    Y4        6.41384   0.01017   0.00000   0.05071   0.04855   6.46239
    Z4        0.00002  -0.00000   0.00000   0.00001   0.00001   0.00004
    X5        2.34935   0.00070   0.00000  -0.03631  -0.03631   2.31304
    Y5        5.18937   0.00021   0.00000   0.00959   0.00743   5.19680
    Z5        0.00009   0.00000   0.00000   0.00001   0.00001   0.00010
    X6        2.37763  -0.06769   0.00000  -0.08914  -0.08914   2.28849
    Y6        2.55372   0.03149   0.00000  -0.00286  -0.00502   2.54871
    Z6        0.00017  -0.00000   0.00000  -0.00002  -0.00002   0.00015
    X7       -4.08033   0.00105   0.00000   0.03238   0.03238  -4.04794
    Y7        6.28711   0.00282   0.00000   0.00729   0.00513   6.29224
    Z7       -0.00009  -0.00000   0.00000   0.00004   0.00004  -0.00005
    X8        0.00000   0.00000   0.00000   0.00000   0.00000   0.00000
    Y8        8.48061  -0.00445   0.00000   0.03725   0.03508   8.51569
    Z8       -0.00002  -0.00000   0.00000   0.00001   0.00001  -0.00001
    X9        4.08033  -0.00105   0.00000  -0.03238  -0.03238   4.04795
    Y9        6.28711   0.00282   0.00000   0.00729   0.00512   6.29224
    Z9        0.00009  -0.00000   0.00000   0.00002   0.00002   0.00011
   X10        6.92516  -0.00740   0.00000  -0.03801  -0.03801   6.88714
   Y10        1.10072  -0.00701   0.00000  -0.01973  -0.02189   1.07883
   Z10       -0.00003  -0.00000   0.00000  -0.00001  -0.00001  -0.00005
   X11        3.57139   0.00937   0.00000  -0.03115  -0.03115   3.54024
   Y11       -1.69779   0.00569   0.00000  -0.00608  -0.00824  -1.70603
   Z11        0.00021  -0.00001   0.00000  -0.00006  -0.00006   0.00015
   X12        7.86270   0.01473   0.00000  -0.01988  -0.01988   7.84281
   Y12       -1.40348   0.00710   0.00000   0.00463   0.00247  -1.40101
   Z12       -0.00018  -0.00000   0.00000   0.00000  -0.00000  -0.00018
   X13        8.55200   0.01242   0.00000  -0.03784  -0.03784   8.51416
   Y13        3.14596   0.00226   0.00000  -0.00427  -0.00644   3.13953
   Z13       -0.00010  -0.00000   0.00000  -0.00001  -0.00001  -0.00011
   X14       10.44719  -0.00168   0.00000  -0.02758  -0.02758  10.41961
   Y14       -1.89249   0.00410   0.00000   0.00334   0.00118  -1.89132
   Z14       -0.00038   0.00000   0.00000   0.00001   0.00001  -0.00037
   X15       11.16305  -0.01414   0.00000  -0.05512  -0.05512  11.10793
   Y15        2.64705   0.00560   0.00000   0.00301   0.00085   2.64790
   Z15       -0.00032   0.00000   0.00000   0.00001   0.00001  -0.00031
   X16        7.86315  -0.00005   0.00000  -0.03938  -0.03938   7.82377
   Y16        5.07137   0.00048   0.00000  -0.00356  -0.00572   5.06565
   Z16        0.00002  -0.00000   0.00000  -0.00002  -0.00002   0.00000
   X17       12.08044   0.00108   0.00000  -0.03488  -0.03488  12.04556
   Y17        0.18946  -0.00972   0.00000  -0.00426  -0.00643   0.18303
   Z17       -0.00046  -0.00000   0.00000   0.00002   0.00001  -0.00044
   X18       11.16286   0.00037   0.00000  -0.02066  -0.02066  11.14220
   Y18       -3.81619   0.00058   0.00000   0.00697   0.00481  -3.81138
   Z18       -0.00047   0.00000   0.00000   0.00002   0.00001  -0.00046
   X19       12.46383   0.00162   0.00000  -0.05007  -0.05007  12.41375
   Y19        4.22699   0.00113   0.00000   0.00626   0.00410   4.23109
   Z19       -0.00037  -0.00000   0.00000   0.00001   0.00001  -0.00036
   X20       14.10689   0.00011   0.00000  -0.03321  -0.03321  14.07368
   Y20       -0.13367  -0.00016   0.00000   0.00084  -0.00132  -0.13499
   Z20       -0.00061  -0.00000   0.00000   0.00002   0.00002  -0.00060
   X21       -6.92516   0.00741   0.00000   0.03802   0.03802  -6.88714
   Y21        1.10072  -0.00702   0.00000  -0.01974  -0.02190   1.07882
   Z21       -0.00006  -0.00000   0.00000  -0.00000  -0.00000  -0.00006
   X22       -3.57137  -0.00938   0.00000   0.03114   0.03114  -3.54022
   Y22       -1.69779   0.00569   0.00000  -0.00607  -0.00824  -1.70603
   Z22        0.00013  -0.00001   0.00000  -0.00005  -0.00005   0.00008
   X23       -7.86268  -0.01475   0.00000   0.01988   0.01988  -7.84280
   Y23       -1.40349   0.00709   0.00000   0.00463   0.00246  -1.40102
   Z23       -0.00012  -0.00000   0.00000   0.00001   0.00000  -0.00012
   X24       -8.55199  -0.01243   0.00000   0.03783   0.03783  -8.51416
   Y24        3.14594   0.00227   0.00000  -0.00426  -0.00642   3.13951
   Z24       -0.00010  -0.00000   0.00000  -0.00000  -0.00000  -0.00010
   X25      -10.44719   0.00170   0.00000   0.02760   0.02760 -10.41960
   Y25       -1.89251   0.00410   0.00000   0.00334   0.00118  -1.89133
   Z25       -0.00019   0.00000   0.00000   0.00001   0.00000  -0.00019
   X26      -11.16305   0.01415   0.00000   0.05512   0.05512 -11.10793
   Y26        2.64704   0.00560   0.00000   0.00301   0.00085   2.64789
   Z26       -0.00019   0.00000   0.00000   0.00000   0.00000  -0.00018
   X27       -7.86315   0.00005   0.00000   0.03937   0.03937  -7.82378
   Y27        5.07136   0.00048   0.00000  -0.00356  -0.00572   5.06564
   Z27       -0.00004  -0.00000   0.00000  -0.00001  -0.00001  -0.00005
   X28      -12.08042  -0.00109   0.00000   0.03487   0.03487 -12.04554
   Y28        0.18944  -0.00971   0.00000  -0.00426  -0.00642   0.18301
   Z28       -0.00023  -0.00000   0.00000   0.00000   0.00000  -0.00023
   X29      -11.16285  -0.00037   0.00000   0.02067   0.02067 -11.14218
   Y29       -3.81620   0.00058   0.00000   0.00697   0.00481  -3.81140
   Z29       -0.00021  -0.00000   0.00000   0.00001   0.00000  -0.00020
   X30      -12.46382  -0.00162   0.00000   0.05007   0.05007 -12.41376
   Y30        4.22697   0.00113   0.00000   0.00627   0.00410   4.23107
   Z30       -0.00020  -0.00000   0.00000  -0.00000  -0.00000  -0.00021
   X31      -14.10689  -0.00011   0.00000   0.03322   0.03322 -14.07367
   Y31       -0.13369  -0.00016   0.00000   0.00084  -0.00132  -0.13501
   Z31       -0.00029   0.00000   0.00000   0.00001   0.00000  -0.00028
   X32       -4.31400  -0.02964   0.00000   0.03151   0.03151  -4.28248
   Y32        0.88529  -0.05643   0.00000  -0.05747  -0.05963   0.82566
   Z32        0.00002   0.00001   0.00000   0.00001   0.00000   0.00002
   X33       -5.83571   0.02619   0.00000   0.05491   0.05491  -5.78080
   Y33       -3.01868   0.01986   0.00000   0.02228   0.02012  -2.99857
   Z33       -0.00009   0.00001   0.00000   0.00001   0.00001  -0.00008
   X34        4.31400   0.02965   0.00000  -0.03151  -0.03151   4.28249
   Y34        0.88530  -0.05643   0.00000  -0.05748  -0.05964   0.82566
   Z34        0.00016   0.00000   0.00000  -0.00002  -0.00002   0.00014
   X35        5.83571  -0.02618   0.00000  -0.05491  -0.05491   5.78081
   Y35       -3.01866   0.01984   0.00000   0.02226   0.02010  -2.99856
   Z35       -0.00010   0.00001   0.00000   0.00001   0.00000  -0.00010
   X36        6.00795   0.00071   0.00000  -0.04225  -0.04225   5.96570
   Y36       -5.70680  -0.01199   0.00000   0.00418   0.00202  -5.70479
   Z36        0.00001  -0.00000   0.00000   0.00001   0.00000   0.00001
   X37        7.00073   0.00018   0.00000  -0.03414  -0.03414   6.96659
   Y37       -6.39238   0.00102   0.00000   0.01596   0.01380  -6.37858
   Z37       -1.68811   0.00115   0.00000   0.00385   0.00384  -1.68427
   X38        6.99993   0.00018   0.00000  -0.03412  -0.03412   6.96580
   Y38       -6.39239   0.00102   0.00000   0.01600   0.01384  -6.37855
   Z38        1.68861  -0.00115   0.00000  -0.00383  -0.00384   1.68478
   X39        4.10299   0.00079   0.00000  -0.04368  -0.04368   4.05931
   Y39       -6.50986   0.00250   0.00000   0.02154   0.01938  -6.49048
   Z39       -0.00047   0.00000   0.00000   0.00003   0.00003  -0.00044
   X40       -6.00793  -0.00072   0.00000   0.04225   0.04225  -5.96568
   Y40       -5.70680  -0.01200   0.00000   0.00418   0.00201  -5.70479
   Z40        0.00008  -0.00000   0.00000   0.00001   0.00001   0.00009
   X41       -6.99979  -0.00018   0.00000   0.03412   0.03412  -6.96567
   Y41       -6.39237   0.00102   0.00000   0.01599   0.01383  -6.37855
   Z41        1.68876  -0.00115   0.00000  -0.00383  -0.00384   1.68493
   X42       -7.00082  -0.00018   0.00000   0.03415   0.03415  -6.96667
   Y42       -6.39241   0.00102   0.00000   0.01595   0.01379  -6.37862
   Z42       -1.68796   0.00115   0.00000   0.00385   0.00384  -1.68412
   X43       -4.10297  -0.00079   0.00000   0.04369   0.04369  -4.05929
   Y43       -6.50987   0.00250   0.00000   0.02155   0.01939  -6.49048
   Z43       -0.00052   0.00000   0.00000   0.00004   0.00004  -0.00048
   X44        0.00000   0.00000   0.00000  -0.00000  -0.00000   0.00000
   Y44       -2.22730   0.02376   0.00000   0.02476   0.02260  -2.20470
   Z44        0.00016   0.00001   0.00000  -0.00004  -0.00005   0.00011
         Item               Value     Threshold  Converged?
 Maximum Force            0.067695     0.000450     NO 
 RMS     Force            0.013868     0.000300     NO 
 Maximum Displacement     0.089137     0.001800     NO 
 RMS     Displacement     0.026128     0.001200     NO 
 Predicted change in Energy=-1.194948D-02
 GradGradGradGradGradGradGradGradGradGradGradGradGradGradGradGradGradGrad

 Unable to Open any file for archive entry.
 1\1\GINC-X11P1N5\Force\UPBE1PBE\GenECP\C22H17Co1N4\MAYUMIAO\17-Jul-202
 4\0\\# pbe1pbe em=gd3bj genecp g09default scf=(xqc,maxcycle=64) force 
 guess=read nosymm\\Title Card\\0,1\C,0.00000019,0.70835276,0.00007496\
 C,-1.25817941,1.35137474,0.00005027\C,-1.24322292,2.74609677,-0.000003
 78\C,0.0000029,3.39405815,0.00001297\C,1.24322181,2.74609791,0.0000477
 3\C,1.25818633,1.35137291,0.00009164\H,-2.15921502,3.32699537,-0.00004
 631\H,0.00000072,4.48774446,-0.00001054\H,2.15921781,3.32699686,0.0000
 4863\C,3.66463426,0.58247425,-0.00001763\C,1.88989669,-0.89843361,0.00
 010948\C,4.16075961,-0.74269123,-0.00009506\C,4.52552565,1.66477177,-0
 .00005253\C,5.52841655,-1.00146497,-0.00020144\C,5.90723094,1.40075878
 ,-0.00017002\H,4.16099841,2.68365336,0.00001288\C,6.39269221,0.1002560
 3,-0.00024129\H,5.9071323,-2.01944045,-0.0002488\H,6.59557255,2.236826
 6,-0.00019564\H,7.46504445,-0.07073709,-0.00032417\C,-3.66463522,0.582
 47597,-0.00002962\C,-1.88988575,-0.89843314,0.00006773\C,-4.16074863,-
 0.7426932,-0.0000645\C,-4.52551926,1.66475824,-0.00005109\C,-5.5284167
 6,-1.00147354,-0.00010249\C,-5.90723295,1.40075258,-0.00009799\H,-4.16
 099783,2.6836502,-0.00002157\C,-6.39268179,0.10024586,-0.00012116\H,-5
 .90712437,-2.0194475,-0.00010898\H,-6.59557067,2.23681582,-0.00010833\
 H,-7.4650424,-0.07074818,-0.00015114\N,-2.28286886,0.46847703,0.000008
 04\N,-3.0881233,-1.59741856,-0.00004719\N,2.28286849,0.46848069,0.0000
 8315\N,3.08812682,-1.59740615,-0.00005424\C,3.17927015,-3.01991023,0.0
 0000562\H,3.70462417,-3.38270114,-0.89331149\H,3.70420108,-3.38270717,
 0.89357507\H,2.17120934,-3.44487036,-0.00024722\C,-3.17925849,-3.01990
 917,0.00004326\H,-3.70413036,-3.38269802,0.89365548\H,-3.70467464,-3.3
 8272017,-0.8932323\H,-2.17119947,-3.44487224,-0.00027437\Co,0.0000006,
 -1.17863391,0.00008401\\Version=ES64L-G16RevC.01\HF=-1212.1386988\S2=0
 .\S2-1=0.\S2A=0.\RMSD=3.146e-09\RMSF=1.387e-02\Dipole=0.0000607,-1.498
 4523,-0.0000733\Quadrupole=13.0202488,7.3849269,-20.4051756,-0.000261,
 -0.0003436,0.0001625\PG=C01 [X(C22H17Co1N4)]\\@
 The archive entry for this job was punched.


 What some people mistake for the high cost
 of living is really the cost of living high.
                              -- Doug Larson
 Job cpu time:       0 days  0 hours 32 minutes 19.6 seconds.
 Elapsed time:       0 days  0 hours  0 minutes 35.3 seconds.
 File lengths (MBytes):  RWF=    184 Int=      0 D2E=      0 Chk=    162 Scr=      1
 Normal termination of Gaussian 16 at Wed Jul 17 20:49:56 2024.
