 Entering Gaussian System, Link 0=g16
 Input=JOBS/10_B.gjf
 Output=JOBS/10_B.log
 Initial command:
 /data/app/gaussian/C01-avx2//g16/l1.exe "/tmp/Gau-2050042.inp" -scrdir="/tmp/"
 Entering Link 1 = /data/app/gaussian/C01-avx2//g16/l1.exe PID=   2050043.
  
 Copyright (c) 1988-2019, Gaussian, Inc.  All Rights Reserved.
  
 This is part of the Gaussian(R) 16 program.  It is based on
 the Gaussian(R) 09 system (copyright 2009, Gaussian, Inc.),
 the Gaussian(R) 03 system (copyright 2003, Gaussian, Inc.),
 the Gaussian(R) 98 system (copyright 1998, Gaussian, Inc.),
 the Gaussian(R) 94 system (copyright 1995, Gaussian, Inc.),
 the Gaussian 92(TM) system (copyright 1992, Gaussian, Inc.),
 the Gaussian 90(TM) system (copyright 1990, Gaussian, Inc.),
 the Gaussian 88(TM) system (copyright 1988, Gaussian, Inc.),
 the Gaussian 86(TM) system (copyright 1986, Carnegie Mellon
 University), and the Gaussian 82(TM) system (copyright 1983,
 Carnegie Mellon University). Gaussian is a federally registered
 trademark of Gaussian, Inc.
  
 This software contains proprietary and confidential information,
 including trade secrets, belonging to Gaussian, Inc.
  
 This software is provided under written license and may be
 used, copied, transmitted, or stored only in accord with that
 written license.
  
 The following legend is applicable only to US Government
 contracts under FAR:
  
                    RESTRICTED RIGHTS LEGEND
  
 Use, reproduction and disclosure by the US Government is
 subject to restrictions as set forth in subparagraphs (a)
 and (c) of the Commercial Computer Software - Restricted
 Rights clause in FAR 52.227-19.
  
 Gaussian, Inc.
 340 Quinnipiac St., Bldg. 40, Wallingford CT 06492
  
  
 ---------------------------------------------------------------
 Warning -- This program may not be used in any manner that
 competes with the business of Gaussian, Inc. or will provide
 assistance to any competitor of Gaussian, Inc.  The licensee
 of this program is prohibited from giving any competitor of
 Gaussian, Inc. access to this program.  By using this program,
 the user acknowledges that Gaussian, Inc. is engaged in the
 business of creating and licensing software in the field of
 computational chemistry and represents and warrants to the
 licensee that it is not a competitor of Gaussian, Inc. and that
 it will not use this program in any manner prohibited above.
 ---------------------------------------------------------------
  

 Cite this work as:
 Gaussian 16, Revision C.01,
 M. J. Frisch, G. W. Trucks, H. B. Schlegel, G. E. Scuseria, 
 M. A. Robb, J. R. Cheeseman, G. Scalmani, V. Barone, 
 G. A. Petersson, H. Nakatsuji, X. Li, M. Caricato, A. V. Marenich, 
 J. Bloino, B. G. Janesko, R. Gomperts, B. Mennucci, H. P. Hratchian, 
 J. V. Ortiz, A. F. Izmaylov, J. L. Sonnenberg, D. Williams-Young, 
 F. Ding, F. Lipparini, F. Egidi, J. Goings, B. Peng, A. Petrone, 
 T. Henderson, D. Ranasinghe, V. G. Zakrzewski, J. Gao, N. Rega, 
 G. Zheng, W. Liang, M. Hada, M. Ehara, K. Toyota, R. Fukuda, 
 J. Hasegawa, M. Ishida, T. Nakajima, Y. Honda, O. Kitao, H. Nakai, 
 T. Vreven, K. Throssell, J. A. Montgomery, Jr., J. E. Peralta, 
 F. Ogliaro, M. J. Bearpark, J. J. Heyd, E. N. Brothers, K. N. Kudin, 
 V. N. Staroverov, T. A. Keith, R. Kobayashi, J. Normand, 
 K. Raghavachari, A. P. Rendell, J. C. Burant, S. S. Iyengar, 
 J. Tomasi, M. Cossi, J. M. Millam, M. Klene, C. Adamo, R. Cammi, 
 J. W. Ochterski, R. L. Martin, K. Morokuma, O. Farkas, 
 J. B. Foresman, and D. J. Fox, Gaussian, Inc., Wallingford CT, 2019.
 
 ******************************************
 Gaussian 16:  ES64L-G16RevC.01  3-Jul-2019
                17-Jul-2024 
 ******************************************
 %chk=b.chk
 %nprocshared=56
 Will use up to   56 processors via shared memory.
 %mem=96gb
 ----------------------------------------------------------------------
 # pbe1pbe em=gd3bj genecp g09default scf=(xqc,maxcycle=64) force guess
 =read nosymm
 ----------------------------------------------------------------------
 1/10=7,30=1,38=1,158=3,167=1/1,3;
 2/12=2,15=1,17=6,18=5,40=1/2;
 3/5=7,11=2,16=1,17=8,25=1,27=10,30=1,71=1,74=-13,75=-4,116=-2,124=41,158=3/1,2,3;
 4/5=1,60=-1/1;
 5/5=2,7=64,8=3,13=1,38=6,87=10/2,8;
 6/7=2,8=2,9=2,10=2,28=1,87=10/1;
 7/29=1,30=1,87=10/1,2,3,16;
 1/10=7,30=1,158=3,167=1/3;
 99//99;
 Using 2006 physical constants.
 ----------
 Title Card
 ----------
 Symbolic Z-matrix:
 Charge =  0 Multiplicity = 3
 6                     0.        0.70835   0.00007 
 6                    -1.25818   1.35137   0.00005 
 6                    -1.24322   2.7461   0. 
 6                     0.        3.39406   0.00001 
 6                     1.24322   2.7461    0.00005 
 6                     1.25819   1.35137   0.00009 
 1                    -2.15922   3.327    -0.00005 
 1                     0.        4.48774  -0.00001 
 1                     2.15922   3.327     0.00005 
 6                     3.66463   0.58247  -0.00002 
 6                     1.8899   -0.89843   0.00011 
 6                     4.16076  -0.74269  -0.0001 
 6                     4.52553   1.66477  -0.00005 
 6                     5.52842  -1.00146  -0.0002 
 6                     5.90723   1.40076  -0.00017 
 1                     4.161     2.68365   0.00001 
 6                     6.39269   0.10026  -0.00024 
 1                     5.90713  -2.01944  -0.00025 
 1                     6.59557   2.23683  -0.0002 
 1                     7.46504  -0.07074  -0.00032 
 6                    -3.66464   0.58248  -0.00003 
 6                    -1.88989  -0.89843   0.00007 
 6                    -4.16075  -0.74269  -0.00006 
 6                    -4.52552   1.66476  -0.00005 
 6                    -5.52842  -1.00147  -0.0001 
 6                    -5.90723   1.40075  -0.0001 
 1                    -4.161     2.68365  -0.00002 
 6                    -6.39268   0.10025  -0.00012 
 1                    -5.90712  -2.01945  -0.00011 
 1                    -6.59557   2.23682  -0.00011 
 1                    -7.46504  -0.07075  -0.00015 
 7                    -2.28287   0.46848   0.00001 
 7                    -3.08812  -1.59742  -0.00005 
 7                     2.28287   0.46848   0.00008 
 7                     3.08813  -1.59741  -0.00005 
 6                     3.17927  -3.01991   0.00001 
 1                     3.70462  -3.3827   -0.89331 
 1                     3.7042   -3.38271   0.89358 
 1                     2.17121  -3.44487  -0.00025 
 6                    -3.17926  -3.01991   0.00004 
 1                    -3.70413  -3.3827    0.89366 
 1                    -3.70467  -3.38272  -0.89323 
 1                    -2.1712   -3.44487  -0.00027 
 27                    0.       -1.17863   0.00008 
 

 GradGradGradGradGradGradGradGradGradGradGradGradGradGradGradGradGradGrad
 Berny optimization.
 Initialization pass.
 Trust Radius=3.00D-01 FncErr=1.00D-07 GrdErr=1.00D-07 EigMax=2.50D+02 EigMin=1.00D-04
 Number of steps in this run=      2 maximum allowed number of steps=      2.
 GradGradGradGradGradGradGradGradGradGradGradGradGradGradGradGradGradGrad

                          Input orientation:                          
 ---------------------------------------------------------------------
 Center     Atomic      Atomic             Coordinates (Angstroms)
 Number     Number       Type             X           Y           Z
 ---------------------------------------------------------------------
      1          6           0        0.000000    0.708353    0.000075
      2          6           0       -1.258179    1.351375    0.000050
      3          6           0       -1.243223    2.746097   -0.000004
      4          6           0        0.000003    3.394058    0.000013
      5          6           0        1.243222    2.746098    0.000048
      6          6           0        1.258186    1.351373    0.000092
      7          1           0       -2.159215    3.326995   -0.000046
      8          1           0        0.000001    4.487744   -0.000011
      9          1           0        2.159218    3.326997    0.000049
     10          6           0        3.664634    0.582474   -0.000018
     11          6           0        1.889897   -0.898434    0.000109
     12          6           0        4.160760   -0.742691   -0.000095
     13          6           0        4.525526    1.664772   -0.000053
     14          6           0        5.528417   -1.001465   -0.000201
     15          6           0        5.907231    1.400759   -0.000170
     16          1           0        4.160998    2.683653    0.000013
     17          6           0        6.392692    0.100256   -0.000241
     18          1           0        5.907132   -2.019440   -0.000249
     19          1           0        6.595573    2.236827   -0.000196
     20          1           0        7.465044   -0.070737   -0.000324
     21          6           0       -3.664635    0.582476   -0.000030
     22          6           0       -1.889886   -0.898433    0.000068
     23          6           0       -4.160749   -0.742693   -0.000065
     24          6           0       -4.525519    1.664758   -0.000051
     25          6           0       -5.528417   -1.001474   -0.000102
     26          6           0       -5.907233    1.400753   -0.000098
     27          1           0       -4.160998    2.683650   -0.000022
     28          6           0       -6.392682    0.100246   -0.000121
     29          1           0       -5.907124   -2.019448   -0.000109
     30          1           0       -6.595571    2.236816   -0.000108
     31          1           0       -7.465042   -0.070748   -0.000151
     32          7           0       -2.282869    0.468477    0.000008
     33          7           0       -3.088123   -1.597419   -0.000047
     34          7           0        2.282868    0.468481    0.000083
     35          7           0        3.088127   -1.597406   -0.000054
     36          6           0        3.179270   -3.019910    0.000006
     37          1           0        3.704624   -3.382701   -0.893311
     38          1           0        3.704201   -3.382707    0.893575
     39          1           0        2.171209   -3.444870   -0.000247
     40          6           0       -3.179258   -3.019909    0.000043
     41          1           0       -3.704130   -3.382698    0.893655
     42          1           0       -3.704675   -3.382720   -0.893232
     43          1           0       -2.171199   -3.444872   -0.000274
     44         27           0        0.000001   -1.178634    0.000084
 ---------------------------------------------------------------------
                    Distance matrix (angstroms):
                    1          2          3          4          5
     1  C    0.000000
     2  C    1.412973   0.000000
     3  C    2.387049   1.394802   0.000000
     4  C    2.685705   2.399079   1.401950   0.000000
     5  C    2.387049   2.863959   2.486445   1.401944   0.000000
     6  C    1.412978   2.516366   2.863966   2.399081   1.394805
     7  H    3.394039   2.171392   1.084659   2.160259   3.451669
     8  H    3.779392   3.379324   2.139846   1.093686   2.139844
     9  H    3.394041   3.947365   3.451673   2.160256   1.084662
    10  C    3.666795   4.982500   5.363611   4.618931   3.247230
    11  C    2.480619   3.869370   4.806146   4.690116   3.701459
    12  C    4.406523   5.809476   6.432314   5.867247   4.547931
    13  C    4.625486   5.792190   5.869218   4.844666   3.455833
    14  C    5.786784   7.182878   7.739465   7.062859   5.692725
    15  C    5.947672   7.165581   7.275914   6.234468   4.854165
    16  H    4.606052   5.580542   5.404582   4.221203   2.918445
    17  C    6.421549   7.752492   8.081316   7.191357   5.789432
    18  H    6.506540   7.918591   8.592900   8.012499   6.668014
    19  H    6.770362   7.903508   7.855321   6.696322   5.376525
    20  H    7.505589   8.838384   9.152512   8.229924   6.829761
    21  C    3.666797   2.526309   3.247228   4.618936   5.363611
    22  C    2.480611   2.336812   3.701455   4.690113   4.806139
    23  C    4.406514   3.579110   4.547924   5.867245   6.432306
    24  C    4.625477   3.282334   3.455830   4.844670   5.869214
    25  C    5.786787   4.875533   5.692730   7.062869   7.739469
    26  C    5.947674   4.649316   4.854167   6.234477   7.275916
    27  H    4.606051   3.193949   2.918443   4.221209   5.404580
    28  C    6.421540   5.284736   5.789426   7.191357   8.081309
    29  H    6.506536   5.742398   6.668012   8.012502   8.592897
    30  H    6.770359   5.410337   5.376522   6.696327   7.855319
    31  H    7.505589   6.367698   6.829762   8.229932   9.152513
    32  N    2.295437   1.352589   2.503680   3.710866   4.197722
    33  N    3.853970   3.470458   4.719087   5.869528   6.134059
    34  N    2.295436   3.649455   4.197720   3.710860   2.503678
    35  N    3.853966   5.252208   6.134053   5.869517   4.719079
    36  C    4.899766   6.228892   7.266724   7.158682   6.082362
    37  H    5.590984   6.916574   7.927254   7.774748   6.664741
    38  H    5.590726   6.916295   7.927025   7.774579   6.664613
    39  H    4.686514   5.896158   7.070108   7.175310   6.260132
    40  C    4.899757   4.774795   6.082356   7.158679   7.266717
    41  H    5.590686   5.403022   6.664594   7.774550   7.926977
    42  H    5.591019   5.403235   6.664758   7.774783   7.927297
    43  H    4.686511   4.882376   6.260131   7.175311   7.070105
    44  Co   1.886987   2.825590   4.116930   4.572692   4.116931
                    6          7          8          9         10
     6  C    0.000000
     7  H    3.947368   0.000000
     8  H    3.379328   2.451439   0.000000
     9  H    2.171393   4.318433   2.451439   0.000000
    10  C    2.526301   6.438138   5.355434   3.130285   0.000000
    11  C    2.336811   5.852312   5.708119   4.234005   2.311446
    12  C    3.579111   7.516943   6.683515   4.535254   1.414993
    13  C    3.282335   6.888305   5.333812   2.891782   1.382932
    14  C    4.875522   8.822429   7.790687   5.485169   2.445925
    15  C    4.649307   8.293247   6.665197   4.214024   2.387222
    16  H    3.193946   6.352872   4.535267   2.102621   2.159012
    17  C    5.284737   9.140403   7.753487   5.322984   2.770349
    18  H    5.742393   9.677310   8.788496   6.529261   3.434932
    19  H    5.410335   8.822402   6.969089   4.568338   3.365603
    20  H    6.367691  10.206417   8.746807   6.300507   3.856138
    21  C    4.982507   3.130284   5.355434   6.438141   7.329269
    22  C    3.869365   4.234003   5.708115   5.852307   5.748546
    23  C    5.809472   4.535251   6.683511   7.516938   7.936793
    24  C    5.792190   2.891786   5.333815   6.888305   8.261353
    25  C    7.182887   5.485177   7.790694   8.822436   9.328509
    26  C    7.165589   4.214030   6.665203   8.293253   9.606780
    27  H    5.580548   2.102624   4.535269   6.352875   8.102806
    28  C    7.752490   5.322983   7.753485   9.140400  10.068870
    29  H    7.918593   6.529263   8.788497   9.677311   9.919101
    30  H    7.903512   4.568341   6.969092   8.822404  10.392721
    31  H    8.838391   6.300513   8.746812  10.206422  11.148830
    32  N    3.649463   2.861192   4.622338   5.282355   5.948596
    33  N    5.252217   5.011260   6.823908   7.196142   7.095891
    34  N    1.352580   5.282349   4.622333   2.861189   1.386460
    35  N    3.470444   7.196133   6.823898   5.011249   2.254826
    36  C    4.774796   8.293530   8.153075   6.428354   3.634935
    37  H    5.403211   8.955588   8.744492   6.943084   4.064750
    38  H    5.403038   8.955351   8.744347   6.943017   4.064817
    39  H    4.882372   8.038081   8.224386   6.771878   4.295326
    40  C    6.228886   6.428350   8.153070   8.293524   7.734083
    41  H    6.916247   6.943015   8.744318   8.955300   8.415458
    42  H    6.916622   6.943091   8.744523   8.955640   8.415896
    43  H    5.896156   6.771878   8.224386   8.038080   7.090591
    44  Co   2.825591   4.996289   5.666378   4.996291   4.065838
                   11         12         13         14         15
    11  C    0.000000
    12  C    2.276197   0.000000
    13  C    3.676488   2.434940   0.000000
    14  C    3.639978   1.391923   2.848615   0.000000
    15  C    4.628743   2.764876   1.406703   2.431909   0.000000
    16  H    4.241374   3.426345   1.082127   3.930640   2.166829
    17  C    4.612217   2.385809   2.435985   1.400272   1.388157
    18  H    4.170712   2.163309   3.934750   1.086140   3.420199
    19  H    5.654489   3.847836   2.147636   3.409597   1.082970
    20  H    5.636254   3.371916   3.413614   2.148670   2.142915
    21  C    5.748558   7.936805   8.261362   9.328508   9.606779
    22  C    3.779782   6.052649   6.908511   7.419018   8.129041
    23  C    6.052649   8.321508   9.013726   9.692620  10.293619
    24  C    6.908510   9.013726   9.051045  10.401460  10.436090
    25  C    7.419029   9.692632  10.401472  11.056833  11.685237
    26  C    8.129052  10.293630  10.436099  11.685235  11.814464
    27  H    7.031689   8.999526   8.746074  10.366524  10.149633
    28  C    8.342570  10.587052  11.029732  11.971898  12.368476
    29  H    7.877196  10.148517  11.064071  11.480761  12.299464
    30  H    9.046156  11.161367  11.135799  12.549005  12.530724
    31  H    9.391483  11.645204  12.115517  13.026750  13.452993
    32  N    4.390947   6.556468   6.912695   7.948390   8.242990
    33  N    5.026854   7.299100   8.283087   8.637125   9.481849
    34  N    1.422280   2.234594   2.541776   3.562909   3.742345
    35  N    1.387198   1.371524   3.564817   2.512003   4.115379
    36  C    2.482569   2.479727   4.874284   3.097194   5.194621
    37  H    3.203595   2.824101   5.191221   3.129561   5.341411
    38  H    3.203373   2.824319   5.191357   3.130002   5.341691
    39  H    2.561928   3.355605   5.625944   4.152237   6.118658
    40  C    5.495179   7.685154   9.017202   8.938553  10.104781
    41  H    6.185720   8.344155   9.695509   9.576491  10.773052
    42  H    6.186192   8.344609   9.695934   9.576944  10.773484
    43  H    4.793418   6.884438   8.423455   8.078015   9.420254
    44  Co   1.910555   4.183535   5.344655   5.531254   6.445823
                   16         17         18         19         20
    16  H    0.000000
    17  C    3.413854   0.000000
    18  H    5.016779   2.174599   0.000000
    19  H    2.475238   2.146181   4.311584   0.000000
    20  H    4.301556   1.085900   2.494902   2.465934   0.000000
    21  C    8.102807  10.068881   9.919108  10.392725  11.148832
    22  C    7.031681   8.342570   7.877192   9.046151   9.391475
    23  C    8.999518  10.587052  10.148513  11.161361  11.645196
    24  C    8.746070  11.029733  11.064065  11.135796  12.115509
    25  C   10.366529  11.971911  11.480768  12.549012  13.026753
    26  C   10.149636  12.368486  12.299469  12.530729  13.452995
    27  H    8.321996  10.865280  11.112439  10.765847  11.947866
    28  C   10.865273  12.785374  12.481126  13.162816  13.858781
    29  H   11.112437  12.481131  11.814257  13.207320  13.513414
    30  H   10.765846  13.162821  13.207320  13.191143  14.248709
    31  H   11.947868  13.858790  13.513418  14.248712  14.930087
    32  N    6.813988   8.683372   8.559547   9.052833   9.762815
    33  N    8.418868   9.631613   9.005150  10.415152  10.663025
    34  N    2.904197   4.126287   4.396025   4.661165   5.210154
    35  N    4.413448   3.715132   2.850422   5.196491   4.635529
    36  C    5.787437   4.479009   2.905542   6.269322   5.202450
    37  H    6.148737   4.489351   2.739906   6.382345   5.089921
    38  H    6.148809   4.489758   2.740497   6.382634   5.090397
    39  H    6.443451   5.512607   3.998621   7.201158   6.277696
    40  C    9.295698  10.067655   9.141304  11.098675  11.045307
    41  H    9.972937  10.718015   9.748534  11.766984  11.684124
    42  H    9.973344  10.718459   9.748989  11.767409  11.684569
    43  H    8.812239   9.268666   8.203127  10.446913  10.209896
    44  Co   5.677250   6.519361   5.966671   7.427445   7.546808
                   21         22         23         24         25
    21  C    0.000000
    22  C    2.311456   0.000000
    23  C    1.414992   2.276197   0.000000
    24  C    1.382916   3.676481   2.434929   0.000000
    25  C    2.445931   3.639990   1.391935   2.848613   0.000000
    26  C    2.387220   4.628751   2.764881   1.406710   2.431911
    27  H    2.159006   4.241376   3.426343   1.082135   3.930645
    28  C    2.770340   4.612216   2.385806   2.435979   1.400264
    29  H    3.434933   4.170717   2.163315   3.934743   1.086136
    30  H    3.365594   5.654490   3.847835   2.147641   3.409595
    31  H    3.856138   5.636261   3.371923   3.413617   2.148667
    32  N    1.386461   1.422280   2.234584   2.541765   3.562911
    33  N    2.254841   1.387211   1.371525   3.564815   2.512008
    34  N    5.948596   4.390937   6.556458   6.912686   7.948392
    35  N    7.095892   5.026845   7.299091   8.283074   8.637127
    36  C    7.734095   5.495180   7.685154   9.017200   8.938562
    37  H    8.415852   6.186134   8.344556   9.695877   9.576905
    38  H    8.415519   6.185772   8.344202   9.695554   9.576542
    39  H    7.090599   4.793416   6.884436   8.423448   8.078021
    40  C    3.634937   2.482568   2.479725   4.874272   3.097197
    41  H    4.064829   3.203366   2.824334   5.191359   3.130025
    42  H    4.064750   3.203611   2.824092   5.191204   3.129545
    43  H    4.295333   2.561931   3.355604   5.625935   4.152241
    44  Co   4.065841   1.910545   4.183525   5.344643   5.531255
                   26         27         28         29         30
    26  C    0.000000
    27  H    2.166833   0.000000
    28  C    1.388156   3.413853   0.000000
    29  H    3.420200   5.016780   2.174596   0.000000
    30  H    1.082964   2.475239   2.146182   4.311582   0.000000
    31  H    2.142915   4.301560   1.085908   2.494902   2.465934
    32  N    3.742346   2.904197   4.126276   4.396021   4.661161
    33  N    4.115387   4.413458   3.715127   2.850417   5.196493
    34  N    8.242991   6.813985   8.683362   8.559543   9.052828
    35  N    9.481849   8.418863   9.631602   9.005146  10.415145
    36  C   10.104791   9.295705  10.067653   9.141307  11.098679
    37  H   10.773442   9.973294  10.718409   9.748948  11.767361
    38  H   10.773106   9.972992  10.718055   9.748576  11.767030
    39  H    9.420260   8.812242   9.268661   8.203128  10.446913
    40  C    5.194622   5.787435   4.479002   2.905542   6.269318
    41  H    5.341709   6.148818   4.489771   2.740520   6.382647
    42  H    5.341401   6.148732   4.489330   2.739884   6.382330
    43  H    6.118662   6.443453   5.512602   3.998621   7.201155
    44  Co   6.445824   5.677248   6.519350   5.966665   7.427439
                   31         32         33         34         35
    31  H    0.000000
    32  N    5.210152   0.000000
    33  N    4.635531   2.217286   0.000000
    34  N    9.762814   4.565737   5.754606   0.000000
    35  N   10.663023   5.754604   6.176250   2.217280   0.000000
    36  C   11.045313   6.481035   6.426796   3.601723   1.425421
    37  H   11.684529   7.174933   7.080012   4.201327   2.089319
    38  H   11.684170   7.174614   7.079653   4.201210   2.089359
    39  H   10.209900   5.929005   5.574375   3.914944   2.062489
    40  C    5.202451   3.601715   1.425407   6.481026   6.426790
    41  H    5.090419   4.201207   2.089352   7.174553   7.079600
    42  H    5.089904   4.201325   2.089310   7.174987   7.080061
    43  H    6.277698   3.914942   2.062483   5.929001   5.574374
    44  Co   7.546806   2.815043   3.116391   2.815044   3.116391
                   36         37         38         39         40
    36  C    0.000000
    37  H    1.098012   0.000000
    38  H    1.098017   1.786887   0.000000
    39  H    1.093973   1.775610   1.775626   0.000000
    40  C    6.358529   6.951082   6.950686   5.367318   0.000000
    41  H    6.950642   7.621213   7.408331   5.943277   1.098021
    42  H    6.951129   7.409299   7.621294   5.943677   1.098014
    43  H    5.367319   5.943625   5.943329   4.342409   1.093973
    44  Co   3.673970   4.402307   4.401973   3.138467   3.673960
                   41         42         43         44
    41  H    0.000000
    42  H    1.786888   0.000000
    43  H    1.775628   1.775608   0.000000
    44  Co   4.401926   4.402344   3.138462   0.000000
 Symmetry turned off by external request.
 Stoichiometry    C22H17CoN4(3)
 Framework group  C1[X(C22H17CoN4)]
 Deg. of freedom   126
 Full point group                 C1      NOp   1
 Rotational constants (GHZ):           0.4702161           0.1014769           0.0835533
 General basis read from cards:  (5D, 7F)
 ======================================================================================================
                                       Pseudopotential Parameters
 ======================================================================================================
  Center     Atomic      Valence      Angular      Power
  Number     Number     Electrons     Momentum     of R      Exponent        Coefficient   SO-Coeffient
 ======================================================================================================
    1          6
                                   No pseudopotential on this center.
    2          6
                                   No pseudopotential on this center.
    3          6
                                   No pseudopotential on this center.
    4          6
                                   No pseudopotential on this center.
    5          6
                                   No pseudopotential on this center.
    6          6
                                   No pseudopotential on this center.
    7          1
                                   No pseudopotential on this center.
    8          1
                                   No pseudopotential on this center.
    9          1
                                   No pseudopotential on this center.
   10          6
                                   No pseudopotential on this center.
   11          6
                                   No pseudopotential on this center.
   12          6
                                   No pseudopotential on this center.
   13          6
                                   No pseudopotential on this center.
   14          6
                                   No pseudopotential on this center.
   15          6
                                   No pseudopotential on this center.
   16          1
                                   No pseudopotential on this center.
   17          6
                                   No pseudopotential on this center.
   18          1
                                   No pseudopotential on this center.
   19          1
                                   No pseudopotential on this center.
   20          1
                                   No pseudopotential on this center.
   21          6
                                   No pseudopotential on this center.
   22          6
                                   No pseudopotential on this center.
   23          6
                                   No pseudopotential on this center.
   24          6
                                   No pseudopotential on this center.
   25          6
                                   No pseudopotential on this center.
   26          6
                                   No pseudopotential on this center.
   27          1
                                   No pseudopotential on this center.
   28          6
                                   No pseudopotential on this center.
   29          1
                                   No pseudopotential on this center.
   30          1
                                   No pseudopotential on this center.
   31          1
                                   No pseudopotential on this center.
   32          7
                                   No pseudopotential on this center.
   33          7
                                   No pseudopotential on this center.
   34          7
                                   No pseudopotential on this center.
   35          7
                                   No pseudopotential on this center.
   36          6
                                   No pseudopotential on this center.
   37          1
                                   No pseudopotential on this center.
   38          1
                                   No pseudopotential on this center.
   39          1
                                   No pseudopotential on this center.
   40          6
                                   No pseudopotential on this center.
   41          1
                                   No pseudopotential on this center.
   42          1
                                   No pseudopotential on this center.
   43          1
                                   No pseudopotential on this center.
   44         27           17
                                      F and up 
                                                     2        1.0000000        0.00000000    0.00000000
                                      S - F
                                                     2       23.6600000      283.96056600    0.00000000
                                                     2       10.6100000       47.15684600    0.00000000
                                      P - F
                                                     2       25.0400000      182.21223600    0.00000000
                                                     2       10.4400000       35.23335200    0.00000000
                                      D - F
                                                     2       29.5400000      -26.47533300    0.00000000
                                                     2       10.1800000       -1.82578700    0.00000000
 ======================================================================================================
   441 basis functions,   871 primitive gaussians,   473 cartesian basis functions
    98 alpha electrons       96 beta electrons
       nuclear repulsion energy      2498.5321944606 Hartrees.
 NAtoms=   44 NActive=   44 NUniq=   44 SFac= 1.00D+00 NAtFMM=   60 NAOKFM=F Big=F
 Integral buffers will be    131072 words long.
 Raffenetti 2 integral format.
 Two-electron integral symmetry is turned off.
 Nuclear repulsion after empirical dispersion term =     2498.4729259876 Hartrees.
 One-electron integrals computed using PRISM.
   1 Symmetry operations used in ECPInt.
 ECPInt:  NShTT=   11781 NPrTT=   71406 LenC2=    9542 LenP2D=   32125.
 LDataN:  DoStor=T MaxTD1= 6 Len=  172
 NBasis=   441 RedAO= T EigKep=  3.44D-04  NBF=   441
 NBsUse=   441 1.00D-06 EigRej= -1.00D+00 NBFU=   441
 Initial guess from the checkpoint file:  "b.chk"
 B after Tr=     0.000000    0.002760    0.000002
         Rot=    1.000000    0.000000   -0.000000   -0.000000 Ang=   0.00 deg.
 Initial guess <Sx>= 0.0000 <Sy>= 0.0000 <Sz>= 1.0000 <S**2>= 2.2015 S= 1.0657
 Requested convergence on RMS density matrix=1.00D-08 within  64 cycles.
 Requested convergence on MAX density matrix=1.00D-06.
 Requested convergence on             energy=1.00D-06.
 No special actions if energy rises.
 EnCoef did     6 forward-backward iterations
 Restarting incremental Fock formation.
 SCF Done:  E(UPBE1PBE) =  -1212.13021711     A.U. after   34 cycles
            NFock= 34  Conv=0.28D-08     -V/T= 2.0552
 <Sx>= 0.0000 <Sy>= 0.0000 <Sz>= 1.0000 <S**2>= 2.1632 S= 1.0534
 <L.S>=  0.00000000000    
 Annihilation of the first spin contaminant:
 S**2 before annihilation     2.1632,   after     2.0039
 QCSCF skips out because SCF is already converged.

 **********************************************************************

            Population analysis using the SCF Density.

 **********************************************************************

 Alpha  occ. eigenvalues --  -14.45246 -14.45246 -14.44756 -14.44756 -10.27810
 Alpha  occ. eigenvalues --  -10.27809 -10.27328 -10.27327 -10.27298 -10.27298
 Alpha  occ. eigenvalues --  -10.27103 -10.27103 -10.26184 -10.26184 -10.23671
 Alpha  occ. eigenvalues --  -10.23671 -10.23503 -10.23503 -10.23008 -10.23008
 Alpha  occ. eigenvalues --  -10.22905 -10.22905 -10.22428 -10.22133 -10.22130
 Alpha  occ. eigenvalues --  -10.20244  -3.93670  -2.46323  -2.43676  -2.42846
 Alpha  occ. eigenvalues --   -1.06006  -1.05912  -0.97295  -0.96889  -0.87978
 Alpha  occ. eigenvalues --   -0.87597  -0.85337  -0.80418  -0.78946  -0.77654
 Alpha  occ. eigenvalues --   -0.77579  -0.75573  -0.74974  -0.73036  -0.72349
 Alpha  occ. eigenvalues --   -0.66849  -0.65457  -0.64426  -0.63925  -0.62814
 Alpha  occ. eigenvalues --   -0.61388  -0.58738  -0.57706  -0.56460  -0.53944
 Alpha  occ. eigenvalues --   -0.53078  -0.52047  -0.49856  -0.49770  -0.49178
 Alpha  occ. eigenvalues --   -0.48363  -0.47994  -0.47208  -0.46838  -0.45877
 Alpha  occ. eigenvalues --   -0.45693  -0.45246  -0.44964  -0.44791  -0.44234
 Alpha  occ. eigenvalues --   -0.42490  -0.41981  -0.41270  -0.38863  -0.38575
 Alpha  occ. eigenvalues --   -0.38552  -0.38175  -0.37284  -0.37167  -0.36916
 Alpha  occ. eigenvalues --   -0.36321  -0.34852  -0.34537  -0.33961  -0.32092
 Alpha  occ. eigenvalues --   -0.31746  -0.30318  -0.29186  -0.27113  -0.27022
 Alpha  occ. eigenvalues --   -0.26582  -0.25992  -0.24522  -0.23838  -0.22801
 Alpha  occ. eigenvalues --   -0.20606  -0.20285  -0.10369
 Alpha virt. eigenvalues --   -0.05890  -0.02637  -0.00110   0.00211   0.00311
 Alpha virt. eigenvalues --    0.02306   0.02851   0.03914   0.04386   0.05575
 Alpha virt. eigenvalues --    0.06307   0.08038   0.08088   0.09851   0.10295
 Alpha virt. eigenvalues --    0.12534   0.12957   0.13803   0.13846   0.15246
 Alpha virt. eigenvalues --    0.15279   0.15370   0.15969   0.16157   0.16495
 Alpha virt. eigenvalues --    0.17002   0.17803   0.17995   0.18091   0.18321
 Alpha virt. eigenvalues --    0.19406   0.19875   0.19908   0.20155   0.21051
 Alpha virt. eigenvalues --    0.21879   0.22710   0.23132   0.24277   0.25917
 Alpha virt. eigenvalues --    0.26078   0.26197   0.26312   0.27583   0.27986
 Alpha virt. eigenvalues --    0.27995   0.28822   0.30647   0.31102   0.31608
 Alpha virt. eigenvalues --    0.32912   0.33367   0.34105   0.34820   0.36521
 Alpha virt. eigenvalues --    0.37489   0.37713   0.39550   0.39663   0.41251
 Alpha virt. eigenvalues --    0.41972   0.44264   0.45194   0.46345   0.47168
 Alpha virt. eigenvalues --    0.47570   0.50182   0.50751   0.51885   0.52260
 Alpha virt. eigenvalues --    0.53893   0.54103   0.56302   0.56402   0.56473
 Alpha virt. eigenvalues --    0.56648   0.57227   0.57930   0.58565   0.58765
 Alpha virt. eigenvalues --    0.58769   0.59669   0.60443   0.61467   0.61541
 Alpha virt. eigenvalues --    0.61598   0.62931   0.63106   0.63338   0.63582
 Alpha virt. eigenvalues --    0.63658   0.63666   0.63945   0.64132   0.64722
 Alpha virt. eigenvalues --    0.65170   0.66144   0.66211   0.66952   0.67426
 Alpha virt. eigenvalues --    0.67429   0.68163   0.68596   0.71052   0.72053
 Alpha virt. eigenvalues --    0.72078   0.73752   0.75666   0.75884   0.76699
 Alpha virt. eigenvalues --    0.77247   0.78184   0.80007   0.80172   0.81323
 Alpha virt. eigenvalues --    0.81576   0.82440   0.83782   0.83830   0.83911
 Alpha virt. eigenvalues --    0.84669   0.85088   0.85833   0.86777   0.87426
 Alpha virt. eigenvalues --    0.87630   0.88155   0.89766   0.90552   0.90754
 Alpha virt. eigenvalues --    0.91032   0.91620   0.91985   0.93009   0.93471
 Alpha virt. eigenvalues --    0.93841   0.94024   0.95331   0.95664   0.96118
 Alpha virt. eigenvalues --    0.97298   0.97714   0.98001   0.98282   0.98517
 Alpha virt. eigenvalues --    1.00277   1.00282   1.01626   1.01928   1.02606
 Alpha virt. eigenvalues --    1.03864   1.04133   1.06305   1.07173   1.07413
 Alpha virt. eigenvalues --    1.08787   1.09044   1.09759   1.10831   1.14164
 Alpha virt. eigenvalues --    1.15244   1.16376   1.16779   1.18305   1.18731
 Alpha virt. eigenvalues --    1.19205   1.20445   1.23842   1.24075   1.24860
 Alpha virt. eigenvalues --    1.24905   1.26388   1.27021   1.28207   1.29164
 Alpha virt. eigenvalues --    1.30018   1.30137   1.31094   1.33418   1.33802
 Alpha virt. eigenvalues --    1.35849   1.36334   1.36489   1.38315   1.38850
 Alpha virt. eigenvalues --    1.40626   1.41087   1.42419   1.42684   1.45045
 Alpha virt. eigenvalues --    1.45323   1.45708   1.46669   1.47744   1.48339
 Alpha virt. eigenvalues --    1.49441   1.49685   1.50284   1.50370   1.50422
 Alpha virt. eigenvalues --    1.51464   1.52635   1.55073   1.57901   1.57954
 Alpha virt. eigenvalues --    1.59988   1.60535   1.64478   1.65217   1.66152
 Alpha virt. eigenvalues --    1.70473   1.71206   1.73379   1.75158   1.77285
 Alpha virt. eigenvalues --    1.78650   1.80202   1.80647   1.82820   1.82946
 Alpha virt. eigenvalues --    1.85334   1.87002   1.87452   1.87541   1.87634
 Alpha virt. eigenvalues --    1.89060   1.90449   1.91365   1.92586   1.94103
 Alpha virt. eigenvalues --    1.95437   1.95619   1.96806   1.97452   1.97728
 Alpha virt. eigenvalues --    1.98162   1.99107   1.99460   1.99848   1.99907
 Alpha virt. eigenvalues --    2.01021   2.02124   2.02622   2.02873   2.05658
 Alpha virt. eigenvalues --    2.06672   2.07065   2.09584   2.11232   2.12851
 Alpha virt. eigenvalues --    2.13003   2.14339   2.15611   2.15813   2.16287
 Alpha virt. eigenvalues --    2.16925   2.17158   2.19062   2.19377   2.20703
 Alpha virt. eigenvalues --    2.20736   2.21299   2.22167   2.23959   2.24018
 Alpha virt. eigenvalues --    2.24364   2.26389   2.26910   2.27395   2.27803
 Alpha virt. eigenvalues --    2.27905   2.28119   2.28455   2.29090   2.32949
 Alpha virt. eigenvalues --    2.35320   2.37220   2.40264   2.40660   2.40685
 Alpha virt. eigenvalues --    2.42019   2.43377   2.45746   2.47072   2.47284
 Alpha virt. eigenvalues --    2.52221   2.52491   2.57227   2.58334   2.58701
 Alpha virt. eigenvalues --    2.59424   2.59516   2.61023   2.62845   2.63871
 Alpha virt. eigenvalues --    2.65185   2.66816   2.67842   2.68895   2.70188
 Alpha virt. eigenvalues --    2.71143   2.72350   2.74795   2.75973   2.76218
 Alpha virt. eigenvalues --    2.76623   2.76656   2.78466   2.79623   2.82754
 Alpha virt. eigenvalues --    2.85913   2.87338   2.87861   2.88529   2.92973
 Alpha virt. eigenvalues --    2.93166   2.96945   2.97470   2.98553   3.01915
 Alpha virt. eigenvalues --    3.06247   3.07467   3.16626   3.19754   3.20198
 Alpha virt. eigenvalues --    3.28249   3.40393   3.44685   3.47871   3.51567
 Alpha virt. eigenvalues --    3.52025   3.58272   5.55204   5.56320   5.57591
 Alpha virt. eigenvalues --    5.60237   5.61085   5.61856   5.63936  45.69796
 Alpha virt. eigenvalues --   45.90324  45.94902  63.00779
  Beta  occ. eigenvalues --  -14.45107 -14.45107 -14.44730 -14.44729 -10.27568
  Beta  occ. eigenvalues --  -10.27567 -10.27337 -10.27336 -10.27299 -10.27298
  Beta  occ. eigenvalues --  -10.27139 -10.27139 -10.26037 -10.26037 -10.23613
  Beta  occ. eigenvalues --  -10.23613 -10.23483 -10.23483 -10.23015 -10.23015
  Beta  occ. eigenvalues --  -10.22871 -10.22871 -10.22288 -10.22238 -10.22216
  Beta  occ. eigenvalues --  -10.20586  -3.86945  -2.38479  -2.37946  -2.34748
  Beta  occ. eigenvalues --   -1.05785  -1.05689  -0.97080  -0.96659  -0.87923
  Beta  occ. eigenvalues --   -0.87522  -0.85316  -0.80319  -0.78894  -0.77593
  Beta  occ. eigenvalues --   -0.77508  -0.75408  -0.74757  -0.73036  -0.72405
  Beta  occ. eigenvalues --   -0.66875  -0.65220  -0.64169  -0.63908  -0.62746
  Beta  occ. eigenvalues --   -0.61287  -0.58700  -0.57672  -0.56424  -0.53894
  Beta  occ. eigenvalues --   -0.53044  -0.51978  -0.49371  -0.49303  -0.49125
  Beta  occ. eigenvalues --   -0.48397  -0.47967  -0.47179  -0.46749  -0.45837
  Beta  occ. eigenvalues --   -0.45686  -0.45195  -0.44778  -0.44549  -0.43898
  Beta  occ. eigenvalues --   -0.42493  -0.41950  -0.41266  -0.38575  -0.38542
  Beta  occ. eigenvalues --   -0.38462  -0.37332  -0.37262  -0.36772  -0.36491
  Beta  occ. eigenvalues --   -0.36198  -0.34872  -0.33960  -0.33283  -0.31476
  Beta  occ. eigenvalues --   -0.29703  -0.29602  -0.26389  -0.25941  -0.25104
  Beta  occ. eigenvalues --   -0.24502  -0.23788  -0.21910  -0.20510  -0.20384
  Beta  occ. eigenvalues --   -0.19788
  Beta virt. eigenvalues --   -0.04876  -0.04230  -0.01254  -0.00530   0.00058
  Beta virt. eigenvalues --    0.01232   0.01670   0.02464   0.03676   0.05620
  Beta virt. eigenvalues --    0.05942   0.06046   0.07963   0.09221   0.09312
  Beta virt. eigenvalues --    0.10321   0.10785   0.12633   0.13050   0.13931
  Beta virt. eigenvalues --    0.14109   0.15412   0.15650   0.15975   0.16064
  Beta virt. eigenvalues --    0.16640   0.16863   0.17055   0.17888   0.18131
  Beta virt. eigenvalues --    0.18637   0.18987   0.19556   0.19982   0.20417
  Beta virt. eigenvalues --    0.21450   0.22037   0.22897   0.23071   0.23197
  Beta virt. eigenvalues --    0.24344   0.25995   0.26155   0.26384   0.27543
  Beta virt. eigenvalues --    0.27631   0.28069   0.29307   0.29335   0.30959
  Beta virt. eigenvalues --    0.31409   0.31851   0.33046   0.33534   0.34466
  Beta virt. eigenvalues --    0.34872   0.36668   0.37702   0.38005   0.39745
  Beta virt. eigenvalues --    0.39756   0.41259   0.42488   0.44488   0.45597
  Beta virt. eigenvalues --    0.46681   0.47585   0.47891   0.50500   0.50887
  Beta virt. eigenvalues --    0.51951   0.52409   0.53989   0.54236   0.56353
  Beta virt. eigenvalues --    0.56447   0.56714   0.56735   0.57296   0.58112
  Beta virt. eigenvalues --    0.58704   0.58805   0.59056   0.59730   0.60517
  Beta virt. eigenvalues --    0.61469   0.61741   0.61794   0.62988   0.63262
  Beta virt. eigenvalues --    0.63284   0.63653   0.63708   0.63755   0.64020
  Beta virt. eigenvalues --    0.64174   0.64718   0.65146   0.66248   0.66366
  Beta virt. eigenvalues --    0.67426   0.67613   0.67761   0.68224   0.68799
  Beta virt. eigenvalues --    0.71044   0.72240   0.72402   0.74146   0.75741
  Beta virt. eigenvalues --    0.76110   0.76804   0.77447   0.78720   0.80318
  Beta virt. eigenvalues --    0.80528   0.81519   0.81814   0.82629   0.83994
  Beta virt. eigenvalues --    0.84030   0.84232   0.84732   0.85342   0.86025
  Beta virt. eigenvalues --    0.87234   0.87440   0.87646   0.88184   0.89820
  Beta virt. eigenvalues --    0.90811   0.90836   0.91176   0.91758   0.92135
  Beta virt. eigenvalues --    0.93062   0.93488   0.94084   0.94711   0.95729
  Beta virt. eigenvalues --    0.96474   0.96645   0.97313   0.97744   0.98350
  Beta virt. eigenvalues --    0.98420   0.98538   1.00285   1.00394   1.01734
  Beta virt. eigenvalues --    1.01989   1.02663   1.03975   1.04172   1.06394
  Beta virt. eigenvalues --    1.07247   1.08749   1.09148   1.09766   1.11135
  Beta virt. eigenvalues --    1.14260   1.15199   1.15347   1.16426   1.16805
  Beta virt. eigenvalues --    1.18364   1.18767   1.19245   1.20558   1.23993
  Beta virt. eigenvalues --    1.24286   1.24918   1.24967   1.26591   1.27258
  Beta virt. eigenvalues --    1.28577   1.29392   1.30277   1.30333   1.31268
  Beta virt. eigenvalues --    1.33802   1.34107   1.36171   1.36627   1.36786
  Beta virt. eigenvalues --    1.38822   1.39033   1.40791   1.41348   1.42796
  Beta virt. eigenvalues --    1.42923   1.45118   1.45421   1.45853   1.46831
  Beta virt. eigenvalues --    1.47854   1.48440   1.49624   1.49725   1.50449
  Beta virt. eigenvalues --    1.50488   1.50662   1.51761   1.53065   1.56247
  Beta virt. eigenvalues --    1.57952   1.58271   1.60661   1.60831   1.65174
  Beta virt. eigenvalues --    1.65675   1.66429   1.70594   1.71694   1.73551
  Beta virt. eigenvalues --    1.75292   1.77316   1.78984   1.80418   1.80818
  Beta virt. eigenvalues --    1.82901   1.83082   1.85459   1.87091   1.87491
  Beta virt. eigenvalues --    1.87551   1.87848   1.89217   1.90665   1.91430
  Beta virt. eigenvalues --    1.92660   1.94148   1.95484   1.95669   1.96918
  Beta virt. eigenvalues --    1.97547   1.97866   1.98308   1.99324   1.99510
  Beta virt. eigenvalues --    1.99966   2.00099   2.01064   2.02162   2.02674
  Beta virt. eigenvalues --    2.03034   2.05857   2.06784   2.07184   2.09815
  Beta virt. eigenvalues --    2.11602   2.12990   2.13187   2.14675   2.15717
  Beta virt. eigenvalues --    2.15851   2.16368   2.16999   2.17309   2.19178
  Beta virt. eigenvalues --    2.19728   2.20820   2.20846   2.21411   2.22358
  Beta virt. eigenvalues --    2.24280   2.24433   2.24530   2.26630   2.27133
  Beta virt. eigenvalues --    2.27524   2.27940   2.28114   2.28275   2.28491
  Beta virt. eigenvalues --    2.29274   2.33050   2.35833   2.37474   2.40347
  Beta virt. eigenvalues --    2.40852   2.40887   2.43824   2.44687   2.47118
  Beta virt. eigenvalues --    2.47815   2.48646   2.52312   2.52613   2.57453
  Beta virt. eigenvalues --    2.58455   2.59019   2.59496   2.59918   2.61086
  Beta virt. eigenvalues --    2.62968   2.64113   2.65483   2.66932   2.67986
  Beta virt. eigenvalues --    2.69035   2.70444   2.71334   2.72574   2.74944
  Beta virt. eigenvalues --    2.76143   2.76364   2.76742   2.76879   2.78791
  Beta virt. eigenvalues --    2.79607   2.82848   2.87407   2.87787   2.88093
  Beta virt. eigenvalues --    2.88703   2.93594   2.93787   2.97179   2.97610
  Beta virt. eigenvalues --    2.99043   3.02515   3.06425   3.07812   3.16667
  Beta virt. eigenvalues --    3.20033   3.20567   3.28174   3.40885   3.45258
  Beta virt. eigenvalues --    3.47898   3.51530   3.52391   3.60504   5.61184
  Beta virt. eigenvalues --    5.63005   5.63064   5.64093   5.64617   5.67243
  Beta virt. eigenvalues --    5.69053  45.79995  45.98647  46.00669  63.06738
          Condensed to atoms (all electrons):
               1          2          3          4          5          6
     1  C    5.247958   0.488992  -0.070285  -0.048003  -0.070284   0.488989
     2  C    0.488992   4.605235   0.536147  -0.005033  -0.038044  -0.015549
     3  C   -0.070285   0.536147   5.031637   0.522188  -0.039147  -0.038043
     4  C   -0.048003  -0.005033   0.522188   4.909827   0.522192  -0.005033
     5  C   -0.070284  -0.038044  -0.039147   0.522192   5.031632   0.536146
     6  C    0.488989  -0.015549  -0.038043  -0.005033   0.536146   4.605242
     7  H    0.005087  -0.038368   0.349318  -0.038674   0.004005   0.000506
     8  H    0.001261   0.002442  -0.035458   0.364805  -0.035458   0.002442
     9  H    0.005087   0.000506   0.004005  -0.038674   0.349317  -0.038368
    10  C    0.007609  -0.000014   0.000001   0.000136  -0.006407  -0.048070
    11  C    0.015842   0.003003  -0.000090   0.000052   0.002929  -0.072721
    12  C   -0.000844   0.000000   0.000000   0.000000   0.000137   0.008058
    13  C    0.000175   0.000001  -0.000002   0.000067   0.001956  -0.005117
    14  C    0.000000  -0.000000   0.000000  -0.000000   0.000002  -0.000030
    15  C    0.000002  -0.000000   0.000000  -0.000001   0.000079   0.000077
    16  H   -0.000034   0.000001   0.000001   0.000123   0.000056   0.000665
    17  C    0.000000   0.000000  -0.000000   0.000000  -0.000001  -0.000004
    18  H   -0.000000   0.000000   0.000000   0.000000  -0.000000   0.000003
    19  H   -0.000000   0.000000  -0.000000   0.000000   0.000002  -0.000003
    20  H   -0.000000  -0.000000   0.000000  -0.000000  -0.000000  -0.000000
    21  C    0.007609  -0.048068  -0.006407   0.000136   0.000001  -0.000014
    22  C    0.015844  -0.072720   0.002929   0.000052  -0.000090   0.003003
    23  C   -0.000844   0.008058   0.000137   0.000000   0.000000   0.000000
    24  C    0.000175  -0.005117   0.001956   0.000067  -0.000002   0.000001
    25  C    0.000000  -0.000030   0.000002  -0.000000   0.000000  -0.000000
    26  C    0.000002   0.000077   0.000079  -0.000001   0.000000  -0.000000
    27  H   -0.000034   0.000666   0.000056   0.000123   0.000001   0.000001
    28  C    0.000000  -0.000004  -0.000001   0.000000  -0.000000   0.000000
    29  H   -0.000000   0.000003  -0.000000   0.000000   0.000000   0.000000
    30  H   -0.000000  -0.000003   0.000002   0.000000  -0.000000   0.000000
    31  H   -0.000000  -0.000000  -0.000000  -0.000000   0.000000  -0.000000
    32  N   -0.035100   0.271233  -0.067132   0.004436   0.000523   0.006267
    33  N    0.001354   0.006413  -0.000167   0.000001   0.000000  -0.000042
    34  N   -0.035100   0.006267   0.000523   0.004436  -0.067132   0.271235
    35  N    0.001354  -0.000042   0.000000   0.000001  -0.000167   0.006413
    36  C   -0.000017   0.000000  -0.000000  -0.000000   0.000002  -0.000064
    37  H   -0.000000  -0.000000   0.000000   0.000000  -0.000000   0.000004
    38  H   -0.000000  -0.000000   0.000000   0.000000  -0.000000   0.000004
    39  H   -0.000022   0.000001   0.000000  -0.000000   0.000000  -0.000013
    40  C   -0.000017  -0.000064   0.000002  -0.000000  -0.000000   0.000000
    41  H   -0.000000   0.000004  -0.000000   0.000000   0.000000  -0.000000
    42  H   -0.000000   0.000004  -0.000000   0.000000   0.000000  -0.000000
    43  H   -0.000022  -0.000013   0.000000  -0.000000   0.000000   0.000001
    44  Co   0.271828  -0.069631   0.003369   0.002940   0.003369  -0.069632
               7          8          9         10         11         12
     1  C    0.005087   0.001261   0.005087   0.007609   0.015842  -0.000844
     2  C   -0.038368   0.002442   0.000506  -0.000014   0.003003   0.000000
     3  C    0.349318  -0.035458   0.004005   0.000001  -0.000090   0.000000
     4  C   -0.038674   0.364805  -0.038674   0.000136   0.000052   0.000000
     5  C    0.004005  -0.035458   0.349317  -0.006407   0.002929   0.000137
     6  C    0.000506   0.002442  -0.038368  -0.048070  -0.072721   0.008058
     7  H    0.550789  -0.004316  -0.000108  -0.000000  -0.000000   0.000000
     8  H   -0.004316   0.545615  -0.004317  -0.000003   0.000001  -0.000000
     9  H   -0.000108  -0.004317   0.550790   0.000393  -0.000167  -0.000035
    10  C   -0.000000  -0.000003   0.000393   4.642895  -0.070259   0.512598
    11  C   -0.000000   0.000001  -0.000167  -0.070259   4.835567  -0.057385
    12  C    0.000000  -0.000000  -0.000035   0.512598  -0.057385   4.654456
    13  C   -0.000000   0.000003   0.000023   0.539975   0.004859  -0.056693
    14  C   -0.000000   0.000000   0.000001  -0.048157   0.005728   0.533595
    15  C   -0.000000   0.000000   0.000128  -0.006296  -0.000074  -0.037797
    16  H   -0.000000  -0.000011   0.006227  -0.034595  -0.000157   0.003726
    17  C    0.000000  -0.000000   0.000001  -0.039453  -0.000079  -0.008343
    18  H    0.000000  -0.000000  -0.000000   0.003888  -0.000216  -0.038270
    19  H    0.000000   0.000000  -0.000009   0.002001   0.000003   0.000936
    20  H   -0.000000  -0.000000   0.000000   0.000902   0.000003   0.002314
    21  C    0.000393  -0.000003  -0.000000  -0.000000  -0.000008   0.000000
    22  C   -0.000167   0.000001  -0.000000  -0.000008  -0.016938  -0.000003
    23  C   -0.000035  -0.000000   0.000000   0.000000  -0.000003  -0.000000
    24  C    0.000023   0.000003  -0.000000   0.000000   0.000000  -0.000000
    25  C    0.000001   0.000000  -0.000000  -0.000000   0.000000   0.000000
    26  C    0.000128   0.000000  -0.000000  -0.000000  -0.000000   0.000000
    27  H    0.006227  -0.000011  -0.000000   0.000000   0.000000  -0.000000
    28  C    0.000001  -0.000000   0.000000   0.000000  -0.000000  -0.000000
    29  H   -0.000000  -0.000000   0.000000   0.000000   0.000000  -0.000000
    30  H   -0.000009   0.000000   0.000000   0.000000   0.000000   0.000000
    31  H    0.000000  -0.000000  -0.000000   0.000000   0.000000   0.000000
    32  N   -0.004391  -0.000106   0.000006   0.000000   0.000339   0.000000
    33  N    0.000002  -0.000000  -0.000000  -0.000000   0.000026   0.000000
    34  N    0.000006  -0.000106  -0.004391   0.261282   0.347787  -0.039261
    35  N   -0.000000  -0.000000   0.000002  -0.045086   0.311765   0.274867
    36  C   -0.000000   0.000000  -0.000000   0.005885  -0.042525  -0.048548
    37  H    0.000000  -0.000000   0.000000  -0.000140   0.000694  -0.001293
    38  H    0.000000  -0.000000   0.000000  -0.000140   0.000689  -0.001289
    39  H    0.000000   0.000000   0.000000   0.000017  -0.000466   0.002619
    40  C   -0.000000   0.000000  -0.000000   0.000000   0.000018   0.000000
    41  H    0.000000  -0.000000   0.000000  -0.000000  -0.000000  -0.000000
    42  H    0.000000  -0.000000   0.000000  -0.000000  -0.000000  -0.000000
    43  H    0.000000   0.000000   0.000000   0.000000  -0.000002  -0.000000
    44  Co  -0.000512   0.000170  -0.000512   0.007880   0.369710   0.004608
              13         14         15         16         17         18
     1  C    0.000175   0.000000   0.000002  -0.000034   0.000000  -0.000000
     2  C    0.000001  -0.000000  -0.000000   0.000001   0.000000   0.000000
     3  C   -0.000002   0.000000   0.000000   0.000001  -0.000000   0.000000
     4  C    0.000067  -0.000000  -0.000001   0.000123   0.000000   0.000000
     5  C    0.001956   0.000002   0.000079   0.000056  -0.000001  -0.000000
     6  C   -0.005117  -0.000030   0.000077   0.000665  -0.000004   0.000003
     7  H   -0.000000  -0.000000  -0.000000  -0.000000   0.000000   0.000000
     8  H    0.000003   0.000000   0.000000  -0.000011  -0.000000  -0.000000
     9  H    0.000023   0.000001   0.000128   0.006227   0.000001  -0.000000
    10  C    0.539975  -0.048157  -0.006296  -0.034595  -0.039453   0.003888
    11  C    0.004859   0.005728  -0.000074  -0.000157  -0.000079  -0.000216
    12  C   -0.056693   0.533595  -0.037797   0.003726  -0.008343  -0.038270
    13  C    5.027178  -0.044097   0.508228   0.355755  -0.036079   0.000282
    14  C   -0.044097   5.033527  -0.038370   0.000450   0.516880   0.362313
    15  C    0.508228  -0.038370   4.899077  -0.035873   0.558786   0.003899
    16  H    0.355755   0.000450  -0.035873   0.518486   0.003729   0.000014
    17  C   -0.036079   0.516880   0.558786   0.003729   4.886552  -0.035595
    18  H    0.000282   0.362313   0.003899   0.000014  -0.035595   0.537114
    19  H   -0.036257   0.004023   0.369100  -0.004059  -0.036077  -0.000148
    20  H    0.004035  -0.037152  -0.036424  -0.000150   0.368256  -0.004256
    21  C    0.000000  -0.000000  -0.000000   0.000000   0.000000   0.000000
    22  C    0.000000   0.000000  -0.000000   0.000000  -0.000000   0.000000
    23  C   -0.000000   0.000000   0.000000  -0.000000  -0.000000  -0.000000
    24  C    0.000000   0.000000  -0.000000   0.000000   0.000000   0.000000
    25  C    0.000000  -0.000000   0.000000  -0.000000  -0.000000   0.000000
    26  C   -0.000000   0.000000  -0.000000   0.000000   0.000000   0.000000
    27  H    0.000000  -0.000000   0.000000   0.000000   0.000000  -0.000000
    28  C    0.000000  -0.000000   0.000000   0.000000   0.000000   0.000000
    29  H    0.000000   0.000000   0.000000  -0.000000   0.000000  -0.000000
    30  H   -0.000000  -0.000000   0.000000  -0.000000   0.000000   0.000000
    31  H   -0.000000   0.000000   0.000000  -0.000000   0.000000   0.000000
    32  N   -0.000000   0.000000   0.000000   0.000000   0.000000  -0.000000
    33  N    0.000000  -0.000000   0.000000   0.000000   0.000000  -0.000000
    34  N   -0.078221   0.008966   0.005164  -0.004984  -0.000181  -0.000091
    35  N    0.009331  -0.084320  -0.000135  -0.000097   0.005423  -0.007212
    36  C   -0.000117  -0.003048   0.000009   0.000003  -0.000116   0.004181
    37  H   -0.000009   0.002826  -0.000002  -0.000000  -0.000007   0.000530
    38  H   -0.000009   0.002824  -0.000002  -0.000000  -0.000007   0.000529
    39  H    0.000006   0.000026  -0.000000  -0.000000   0.000001  -0.000032
    40  C    0.000000   0.000000  -0.000000   0.000000   0.000000  -0.000000
    41  H    0.000000   0.000000  -0.000000   0.000000  -0.000000  -0.000000
    42  H    0.000000   0.000000  -0.000000   0.000000  -0.000000  -0.000000
    43  H    0.000000   0.000000  -0.000000   0.000000  -0.000000   0.000000
    44  Co  -0.000550  -0.000494  -0.000008   0.000056   0.000005   0.000022
              19         20         21         22         23         24
     1  C   -0.000000  -0.000000   0.007609   0.015844  -0.000844   0.000175
     2  C    0.000000  -0.000000  -0.048068  -0.072720   0.008058  -0.005117
     3  C   -0.000000   0.000000  -0.006407   0.002929   0.000137   0.001956
     4  C    0.000000  -0.000000   0.000136   0.000052   0.000000   0.000067
     5  C    0.000002  -0.000000   0.000001  -0.000090   0.000000  -0.000002
     6  C   -0.000003  -0.000000  -0.000014   0.003003   0.000000   0.000001
     7  H    0.000000  -0.000000   0.000393  -0.000167  -0.000035   0.000023
     8  H    0.000000  -0.000000  -0.000003   0.000001  -0.000000   0.000003
     9  H   -0.000009   0.000000  -0.000000  -0.000000   0.000000  -0.000000
    10  C    0.002001   0.000902  -0.000000  -0.000008   0.000000   0.000000
    11  C    0.000003   0.000003  -0.000008  -0.016938  -0.000003   0.000000
    12  C    0.000936   0.002314   0.000000  -0.000003  -0.000000  -0.000000
    13  C   -0.036257   0.004035   0.000000   0.000000  -0.000000   0.000000
    14  C    0.004023  -0.037152  -0.000000   0.000000   0.000000   0.000000
    15  C    0.369100  -0.036424  -0.000000  -0.000000   0.000000  -0.000000
    16  H   -0.004059  -0.000150   0.000000   0.000000  -0.000000   0.000000
    17  C   -0.036077   0.368256   0.000000  -0.000000  -0.000000   0.000000
    18  H   -0.000148  -0.004256   0.000000   0.000000  -0.000000   0.000000
    19  H    0.534928  -0.004642   0.000000   0.000000   0.000000  -0.000000
    20  H   -0.004642   0.538660   0.000000   0.000000   0.000000  -0.000000
    21  C    0.000000   0.000000   4.642871  -0.070257   0.512598   0.539978
    22  C    0.000000   0.000000  -0.070257   4.835574  -0.057385   0.004859
    23  C    0.000000   0.000000   0.512598  -0.057385   4.654471  -0.056694
    24  C   -0.000000  -0.000000   0.539978   0.004859  -0.056694   5.027194
    25  C   -0.000000   0.000000  -0.048156   0.005728   0.533593  -0.044097
    26  C    0.000000   0.000000  -0.006296  -0.000074  -0.037797   0.508223
    27  H   -0.000000  -0.000000  -0.034594  -0.000157   0.003726   0.355753
    28  C    0.000000   0.000000  -0.039453  -0.000079  -0.008344  -0.036078
    29  H    0.000000   0.000000   0.003888  -0.000216  -0.038270   0.000282
    30  H    0.000000   0.000000   0.002000   0.000003   0.000936  -0.036257
    31  H    0.000000   0.000000   0.000903   0.000003   0.002314   0.004035
    32  N   -0.000000   0.000000   0.261279   0.347788  -0.039259  -0.078225
    33  N   -0.000000  -0.000000  -0.045086   0.311761   0.274867   0.009331
    34  N   -0.000092   0.000003   0.000000   0.000339   0.000000  -0.000000
    35  N    0.000004  -0.000099  -0.000000   0.000026   0.000000   0.000000
    36  C   -0.000000  -0.000002   0.000000   0.000018   0.000000   0.000000
    37  H   -0.000000  -0.000000  -0.000000  -0.000000  -0.000000   0.000000
    38  H   -0.000000  -0.000000  -0.000000  -0.000000  -0.000000   0.000000
    39  H   -0.000000  -0.000000   0.000000  -0.000002  -0.000000   0.000000
    40  C    0.000000  -0.000000   0.005885  -0.042525  -0.048548  -0.000117
    41  H   -0.000000   0.000000  -0.000140   0.000689  -0.001289  -0.000009
    42  H   -0.000000   0.000000  -0.000140   0.000694  -0.001293  -0.000009
    43  H    0.000000   0.000000   0.000017  -0.000466   0.002619   0.000006
    44  Co   0.000016  -0.000003   0.007879   0.369709   0.004607  -0.000550
              25         26         27         28         29         30
     1  C    0.000000   0.000002  -0.000034   0.000000  -0.000000  -0.000000
     2  C   -0.000030   0.000077   0.000666  -0.000004   0.000003  -0.000003
     3  C    0.000002   0.000079   0.000056  -0.000001  -0.000000   0.000002
     4  C   -0.000000  -0.000001   0.000123   0.000000   0.000000   0.000000
     5  C    0.000000   0.000000   0.000001  -0.000000   0.000000  -0.000000
     6  C   -0.000000  -0.000000   0.000001   0.000000   0.000000   0.000000
     7  H    0.000001   0.000128   0.006227   0.000001  -0.000000  -0.000009
     8  H    0.000000   0.000000  -0.000011  -0.000000  -0.000000   0.000000
     9  H   -0.000000  -0.000000  -0.000000   0.000000   0.000000   0.000000
    10  C   -0.000000  -0.000000   0.000000   0.000000   0.000000   0.000000
    11  C    0.000000  -0.000000   0.000000  -0.000000   0.000000   0.000000
    12  C    0.000000   0.000000  -0.000000  -0.000000  -0.000000   0.000000
    13  C    0.000000  -0.000000   0.000000   0.000000   0.000000  -0.000000
    14  C   -0.000000   0.000000  -0.000000  -0.000000   0.000000  -0.000000
    15  C    0.000000  -0.000000   0.000000   0.000000   0.000000   0.000000
    16  H   -0.000000   0.000000   0.000000   0.000000  -0.000000  -0.000000
    17  C   -0.000000   0.000000   0.000000   0.000000   0.000000   0.000000
    18  H    0.000000   0.000000  -0.000000   0.000000  -0.000000   0.000000
    19  H   -0.000000   0.000000  -0.000000   0.000000   0.000000   0.000000
    20  H    0.000000   0.000000  -0.000000   0.000000   0.000000   0.000000
    21  C   -0.048156  -0.006296  -0.034594  -0.039453   0.003888   0.002000
    22  C    0.005728  -0.000074  -0.000157  -0.000079  -0.000216   0.000003
    23  C    0.533593  -0.037797   0.003726  -0.008344  -0.038270   0.000936
    24  C   -0.044097   0.508223   0.355753  -0.036078   0.000282  -0.036257
    25  C    5.033516  -0.038371   0.000450   0.516883   0.362314   0.004023
    26  C   -0.038371   4.899078  -0.035873   0.558787   0.003899   0.369101
    27  H    0.000450  -0.035873   0.518487   0.003729   0.000014  -0.004059
    28  C    0.516883   0.558787   0.003729   4.886552  -0.035595  -0.036077
    29  H    0.362314   0.003899   0.000014  -0.035595   0.537113  -0.000148
    30  H    0.004023   0.369101  -0.004059  -0.036077  -0.000148   0.534925
    31  H   -0.037152  -0.036424  -0.000150   0.368255  -0.004256  -0.004642
    32  N    0.008966   0.005164  -0.004984  -0.000181  -0.000091  -0.000092
    33  N   -0.084318  -0.000135  -0.000097   0.005423  -0.007212   0.000004
    34  N    0.000000   0.000000   0.000000   0.000000  -0.000000  -0.000000
    35  N   -0.000000   0.000000   0.000000   0.000000  -0.000000  -0.000000
    36  C    0.000000  -0.000000   0.000000   0.000000  -0.000000   0.000000
    37  H    0.000000  -0.000000   0.000000  -0.000000  -0.000000  -0.000000
    38  H    0.000000  -0.000000   0.000000  -0.000000  -0.000000  -0.000000
    39  H    0.000000  -0.000000   0.000000  -0.000000   0.000000   0.000000
    40  C   -0.003048   0.000009   0.000003  -0.000116   0.004181  -0.000000
    41  H    0.002824  -0.000002  -0.000000  -0.000007   0.000529  -0.000000
    42  H    0.002826  -0.000002  -0.000000  -0.000007   0.000530  -0.000000
    43  H    0.000026  -0.000000  -0.000000   0.000001  -0.000032  -0.000000
    44  Co  -0.000494  -0.000008   0.000056   0.000005   0.000022   0.000016
              31         32         33         34         35         36
     1  C   -0.000000  -0.035100   0.001354  -0.035100   0.001354  -0.000017
     2  C   -0.000000   0.271233   0.006413   0.006267  -0.000042   0.000000
     3  C   -0.000000  -0.067132  -0.000167   0.000523   0.000000  -0.000000
     4  C   -0.000000   0.004436   0.000001   0.004436   0.000001  -0.000000
     5  C    0.000000   0.000523   0.000000  -0.067132  -0.000167   0.000002
     6  C   -0.000000   0.006267  -0.000042   0.271235   0.006413  -0.000064
     7  H    0.000000  -0.004391   0.000002   0.000006  -0.000000  -0.000000
     8  H   -0.000000  -0.000106  -0.000000  -0.000106  -0.000000   0.000000
     9  H   -0.000000   0.000006  -0.000000  -0.004391   0.000002  -0.000000
    10  C    0.000000   0.000000  -0.000000   0.261282  -0.045086   0.005885
    11  C    0.000000   0.000339   0.000026   0.347787   0.311765  -0.042525
    12  C    0.000000   0.000000   0.000000  -0.039261   0.274867  -0.048548
    13  C   -0.000000  -0.000000   0.000000  -0.078221   0.009331  -0.000117
    14  C    0.000000   0.000000  -0.000000   0.008966  -0.084320  -0.003048
    15  C    0.000000   0.000000   0.000000   0.005164  -0.000135   0.000009
    16  H   -0.000000   0.000000   0.000000  -0.004984  -0.000097   0.000003
    17  C    0.000000   0.000000   0.000000  -0.000181   0.005423  -0.000116
    18  H    0.000000  -0.000000  -0.000000  -0.000091  -0.007212   0.004181
    19  H    0.000000  -0.000000  -0.000000  -0.000092   0.000004  -0.000000
    20  H    0.000000   0.000000  -0.000000   0.000003  -0.000099  -0.000002
    21  C    0.000903   0.261279  -0.045086   0.000000  -0.000000   0.000000
    22  C    0.000003   0.347788   0.311761   0.000339   0.000026   0.000018
    23  C    0.002314  -0.039259   0.274867   0.000000   0.000000   0.000000
    24  C    0.004035  -0.078225   0.009331  -0.000000   0.000000   0.000000
    25  C   -0.037152   0.008966  -0.084318   0.000000  -0.000000   0.000000
    26  C   -0.036424   0.005164  -0.000135   0.000000   0.000000  -0.000000
    27  H   -0.000150  -0.004984  -0.000097   0.000000   0.000000   0.000000
    28  C    0.368255  -0.000181   0.005423   0.000000   0.000000   0.000000
    29  H   -0.004256  -0.000091  -0.007212  -0.000000  -0.000000  -0.000000
    30  H   -0.004642  -0.000092   0.000004  -0.000000  -0.000000   0.000000
    31  H    0.538665   0.000003  -0.000099   0.000000  -0.000000  -0.000000
    32  N    0.000003   7.175472  -0.058342  -0.000143   0.000001  -0.000000
    33  N   -0.000099  -0.058342   7.052343   0.000001  -0.000000  -0.000000
    34  N    0.000000  -0.000143   0.000001   7.175457  -0.058342   0.004650
    35  N   -0.000000   0.000001  -0.000000  -0.058342   7.052349   0.299721
    36  C   -0.000000  -0.000000  -0.000000   0.004650   0.299721   5.050983
    37  H    0.000000   0.000000  -0.000000  -0.000068  -0.042686   0.377783
    38  H    0.000000   0.000000  -0.000000  -0.000068  -0.042689   0.377790
    39  H    0.000000  -0.000000   0.000001   0.000147  -0.032321   0.377191
    40  C   -0.000002   0.004650   0.299724  -0.000000  -0.000000   0.000000
    41  H   -0.000000  -0.000068  -0.042691   0.000000  -0.000000  -0.000000
    42  H   -0.000000  -0.000068  -0.042687   0.000000  -0.000000  -0.000000
    43  H   -0.000000   0.000147  -0.032321  -0.000000   0.000001  -0.000001
    44  Co  -0.000003  -0.081044  -0.053064  -0.081043  -0.053064  -0.002754
              37         38         39         40         41         42
     1  C   -0.000000  -0.000000  -0.000022  -0.000017  -0.000000  -0.000000
     2  C   -0.000000  -0.000000   0.000001  -0.000064   0.000004   0.000004
     3  C    0.000000   0.000000   0.000000   0.000002  -0.000000  -0.000000
     4  C    0.000000   0.000000  -0.000000  -0.000000   0.000000   0.000000
     5  C   -0.000000  -0.000000   0.000000  -0.000000   0.000000   0.000000
     6  C    0.000004   0.000004  -0.000013   0.000000  -0.000000  -0.000000
     7  H    0.000000   0.000000   0.000000  -0.000000   0.000000   0.000000
     8  H   -0.000000  -0.000000   0.000000   0.000000  -0.000000  -0.000000
     9  H    0.000000   0.000000   0.000000  -0.000000   0.000000   0.000000
    10  C   -0.000140  -0.000140   0.000017   0.000000  -0.000000  -0.000000
    11  C    0.000694   0.000689  -0.000466   0.000018  -0.000000  -0.000000
    12  C   -0.001293  -0.001289   0.002619   0.000000  -0.000000  -0.000000
    13  C   -0.000009  -0.000009   0.000006   0.000000   0.000000   0.000000
    14  C    0.002826   0.002824   0.000026   0.000000   0.000000   0.000000
    15  C   -0.000002  -0.000002  -0.000000  -0.000000  -0.000000  -0.000000
    16  H   -0.000000  -0.000000  -0.000000   0.000000   0.000000   0.000000
    17  C   -0.000007  -0.000007   0.000001   0.000000  -0.000000  -0.000000
    18  H    0.000530   0.000529  -0.000032  -0.000000  -0.000000  -0.000000
    19  H   -0.000000  -0.000000  -0.000000   0.000000  -0.000000  -0.000000
    20  H   -0.000000  -0.000000  -0.000000  -0.000000   0.000000   0.000000
    21  C   -0.000000  -0.000000   0.000000   0.005885  -0.000140  -0.000140
    22  C   -0.000000  -0.000000  -0.000002  -0.042525   0.000689   0.000694
    23  C   -0.000000  -0.000000  -0.000000  -0.048548  -0.001289  -0.001293
    24  C    0.000000   0.000000   0.000000  -0.000117  -0.000009  -0.000009
    25  C    0.000000   0.000000   0.000000  -0.003048   0.002824   0.002826
    26  C   -0.000000  -0.000000  -0.000000   0.000009  -0.000002  -0.000002
    27  H    0.000000   0.000000   0.000000   0.000003  -0.000000  -0.000000
    28  C   -0.000000  -0.000000  -0.000000  -0.000116  -0.000007  -0.000007
    29  H   -0.000000  -0.000000   0.000000   0.004181   0.000529   0.000530
    30  H   -0.000000  -0.000000   0.000000  -0.000000  -0.000000  -0.000000
    31  H    0.000000   0.000000   0.000000  -0.000002  -0.000000  -0.000000
    32  N    0.000000   0.000000  -0.000000   0.004650  -0.000068  -0.000068
    33  N   -0.000000  -0.000000   0.000001   0.299724  -0.042691  -0.042687
    34  N   -0.000068  -0.000068   0.000147  -0.000000   0.000000   0.000000
    35  N   -0.042686  -0.042689  -0.032321  -0.000000  -0.000000  -0.000000
    36  C    0.377783   0.377790   0.377191   0.000000  -0.000000  -0.000000
    37  H    0.525331  -0.040496  -0.025513  -0.000000  -0.000000   0.000000
    38  H   -0.040496   0.525336  -0.025524  -0.000000   0.000000  -0.000000
    39  H   -0.025513  -0.025524   0.481893  -0.000001   0.000000   0.000000
    40  C   -0.000000  -0.000000  -0.000001   5.050982   0.377790   0.377783
    41  H   -0.000000   0.000000   0.000000   0.377790   0.525341  -0.040497
    42  H    0.000000  -0.000000   0.000000   0.377783  -0.040497   0.525335
    43  H    0.000000   0.000000  -0.000023   0.377191  -0.025525  -0.025512
    44  Co   0.000961   0.000963   0.007204  -0.002754   0.000963   0.000961
              43         44
     1  C   -0.000022   0.271828
     2  C   -0.000013  -0.069631
     3  C    0.000000   0.003369
     4  C   -0.000000   0.002940
     5  C    0.000000   0.003369
     6  C    0.000001  -0.069632
     7  H    0.000000  -0.000512
     8  H    0.000000   0.000170
     9  H    0.000000  -0.000512
    10  C    0.000000   0.007880
    11  C   -0.000002   0.369710
    12  C   -0.000000   0.004608
    13  C    0.000000  -0.000550
    14  C    0.000000  -0.000494
    15  C   -0.000000  -0.000008
    16  H    0.000000   0.000056
    17  C   -0.000000   0.000005
    18  H    0.000000   0.000022
    19  H    0.000000   0.000016
    20  H    0.000000  -0.000003
    21  C    0.000017   0.007879
    22  C   -0.000466   0.369709
    23  C    0.002619   0.004607
    24  C    0.000006  -0.000550
    25  C    0.000026  -0.000494
    26  C   -0.000000  -0.000008
    27  H   -0.000000   0.000056
    28  C    0.000001   0.000005
    29  H   -0.000032   0.000022
    30  H   -0.000000   0.000016
    31  H   -0.000000  -0.000003
    32  N    0.000147  -0.081044
    33  N   -0.032321  -0.053064
    34  N   -0.000000  -0.081043
    35  N    0.000001  -0.053064
    36  C   -0.000001  -0.002754
    37  H    0.000000   0.000961
    38  H    0.000000   0.000963
    39  H   -0.000023   0.007204
    40  C    0.377191  -0.002754
    41  H   -0.025525   0.000963
    42  H   -0.025512   0.000961
    43  H    0.481894   0.007204
    44  Co   0.007204  16.280301
          Atomic-Atomic Spin Densities.
               1          2          3          4          5          6
     1  C   -0.228505  -0.009247   0.003602   0.003507   0.003602  -0.009248
     2  C   -0.009247   0.109542   0.005665  -0.003801   0.000825   0.003067
     3  C    0.003602   0.005665  -0.083863  -0.005511   0.000665   0.000825
     4  C    0.003507  -0.003801  -0.005511   0.131055  -0.005511  -0.003801
     5  C    0.003602   0.000825   0.000665  -0.005511  -0.083862   0.005666
     6  C   -0.009248   0.003067   0.000825  -0.003801   0.005666   0.109545
     7  H   -0.000336  -0.000100   0.002449   0.000607   0.000003  -0.000066
     8  H   -0.000073   0.000009   0.000076   0.000034   0.000076   0.000009
     9  H   -0.000336  -0.000066   0.000003   0.000607   0.002449  -0.000100
    10  C   -0.000192  -0.000019   0.000001   0.000017   0.000331  -0.000338
    11  C    0.004888  -0.000934   0.000001   0.000032  -0.000192  -0.006712
    12  C    0.000044   0.000000   0.000000  -0.000000  -0.000010   0.000030
    13  C    0.000017   0.000000  -0.000000   0.000005  -0.000215  -0.000335
    14  C    0.000001   0.000000  -0.000000   0.000000  -0.000001  -0.000018
    15  C   -0.000000   0.000000   0.000000  -0.000000   0.000002   0.000010
    16  H   -0.000001  -0.000000  -0.000000   0.000001   0.000043   0.000046
    17  C   -0.000000  -0.000000   0.000000  -0.000000   0.000000   0.000001
    18  H    0.000000  -0.000000  -0.000000   0.000000   0.000000   0.000000
    19  H    0.000000   0.000000  -0.000000  -0.000000  -0.000000   0.000000
    20  H    0.000000   0.000000  -0.000000  -0.000000  -0.000000  -0.000000
    21  C   -0.000192  -0.000338   0.000331   0.000017   0.000001  -0.000019
    22  C    0.004888  -0.006712  -0.000192   0.000032   0.000001  -0.000934
    23  C    0.000044   0.000030  -0.000010  -0.000000   0.000000   0.000000
    24  C    0.000017  -0.000335  -0.000215   0.000005  -0.000000   0.000000
    25  C    0.000001  -0.000018  -0.000001   0.000000  -0.000000   0.000000
    26  C   -0.000000   0.000010   0.000002  -0.000000   0.000000   0.000000
    27  H   -0.000001   0.000046   0.000043   0.000001  -0.000000  -0.000000
    28  C   -0.000000   0.000001   0.000000  -0.000000   0.000000  -0.000000
    29  H    0.000000   0.000000   0.000000   0.000000  -0.000000  -0.000000
    30  H    0.000000   0.000000  -0.000000  -0.000000  -0.000000   0.000000
    31  H    0.000000  -0.000000  -0.000000  -0.000000  -0.000000   0.000000
    32  N    0.000351   0.011112   0.002771   0.000021   0.000020  -0.000071
    33  N   -0.000559   0.000416  -0.000009  -0.000000  -0.000000   0.000003
    34  N    0.000351  -0.000071   0.000020   0.000021   0.002771   0.011112
    35  N   -0.000559   0.000003  -0.000000  -0.000000  -0.000009   0.000416
    36  C   -0.000012   0.000000  -0.000000  -0.000000  -0.000000  -0.000004
    37  H    0.000001  -0.000000  -0.000000   0.000000  -0.000000  -0.000001
    38  H    0.000001  -0.000000  -0.000000   0.000000  -0.000000  -0.000001
    39  H    0.000010  -0.000000   0.000000   0.000000   0.000000  -0.000000
    40  C   -0.000012  -0.000004  -0.000000  -0.000000  -0.000000   0.000000
    41  H    0.000001  -0.000001  -0.000000   0.000000  -0.000000  -0.000000
    42  H    0.000001  -0.000001  -0.000000   0.000000  -0.000000  -0.000000
    43  H    0.000010  -0.000000   0.000000   0.000000   0.000000  -0.000000
    44  Co   0.025991  -0.011270  -0.001571   0.001428  -0.001571  -0.011270
               7          8          9         10         11         12
     1  C   -0.000336  -0.000073  -0.000336  -0.000192   0.004888   0.000044
     2  C   -0.000100   0.000009  -0.000066  -0.000019  -0.000934   0.000000
     3  C    0.002449   0.000076   0.000003   0.000001   0.000001   0.000000
     4  C    0.000607   0.000034   0.000607   0.000017   0.000032  -0.000000
     5  C    0.000003   0.000076   0.002449   0.000331  -0.000192  -0.000010
     6  C   -0.000066   0.000009  -0.000100  -0.000338  -0.006712   0.000030
     7  H   -0.002230  -0.000033  -0.000011  -0.000000   0.000000   0.000000
     8  H   -0.000033  -0.006222  -0.000033  -0.000000   0.000000   0.000000
     9  H   -0.000011  -0.000033  -0.002230  -0.000075   0.000013   0.000001
    10  C   -0.000000  -0.000000  -0.000075  -0.002619   0.001722  -0.001953
    11  C    0.000000   0.000000   0.000013   0.001722   0.214479  -0.001693
    12  C    0.000000   0.000000   0.000001  -0.001953  -0.001693  -0.027603
    13  C    0.000000   0.000000   0.000080   0.004378   0.000271   0.000615
    14  C    0.000000   0.000000   0.000000   0.000835   0.000529  -0.000076
    15  C    0.000000   0.000000   0.000004  -0.000821  -0.000027   0.000187
    16  H   -0.000000  -0.000000  -0.000106  -0.000151  -0.000001  -0.000005
    17  C   -0.000000  -0.000000  -0.000000   0.000119  -0.000013  -0.000223
    18  H   -0.000000  -0.000000  -0.000000  -0.000008  -0.000002  -0.000055
    19  H   -0.000000  -0.000000  -0.000000   0.000003  -0.000000  -0.000007
    20  H    0.000000   0.000000   0.000000  -0.000005   0.000000   0.000013
    21  C   -0.000075  -0.000000  -0.000000  -0.000000   0.000001  -0.000000
    22  C    0.000013   0.000000   0.000000   0.000001   0.001988   0.000000
    23  C    0.000001   0.000000   0.000000  -0.000000   0.000000   0.000000
    24  C    0.000080   0.000000   0.000000   0.000000   0.000000   0.000000
    25  C    0.000000   0.000000   0.000000   0.000000   0.000000   0.000000
    26  C    0.000004   0.000000   0.000000  -0.000000  -0.000000  -0.000000
    27  H   -0.000106  -0.000000  -0.000000  -0.000000   0.000000  -0.000000
    28  C   -0.000000  -0.000000  -0.000000  -0.000000  -0.000000   0.000000
    29  H   -0.000000  -0.000000  -0.000000   0.000000   0.000000  -0.000000
    30  H   -0.000000  -0.000000  -0.000000  -0.000000  -0.000000   0.000000
    31  H    0.000000   0.000000   0.000000   0.000000  -0.000000  -0.000000
    32  N   -0.000302  -0.000000  -0.000001  -0.000000  -0.000044  -0.000000
    33  N    0.000001   0.000000   0.000000   0.000000  -0.000005   0.000000
    34  N   -0.000001  -0.000000  -0.000302  -0.001103  -0.029829   0.001448
    35  N    0.000000   0.000000   0.000001  -0.000914  -0.043646   0.007059
    36  C    0.000000   0.000000   0.000000  -0.000034   0.000547   0.000340
    37  H   -0.000000  -0.000000  -0.000000   0.000005   0.000465  -0.000140
    38  H   -0.000000  -0.000000  -0.000000   0.000005   0.000466  -0.000141
    39  H   -0.000000  -0.000000  -0.000000   0.000000  -0.000546  -0.000046
    40  C    0.000000   0.000000   0.000000   0.000000  -0.000001  -0.000000
    41  H   -0.000000  -0.000000  -0.000000   0.000000   0.000000  -0.000000
    42  H   -0.000000  -0.000000  -0.000000   0.000000   0.000000  -0.000000
    43  H   -0.000000  -0.000000  -0.000000  -0.000000   0.000001   0.000000
    44  Co   0.000260   0.000023   0.000260   0.001324   0.058918   0.000175
              13         14         15         16         17         18
     1  C    0.000017   0.000001  -0.000000  -0.000001  -0.000000   0.000000
     2  C    0.000000   0.000000   0.000000  -0.000000  -0.000000  -0.000000
     3  C   -0.000000  -0.000000   0.000000  -0.000000   0.000000  -0.000000
     4  C    0.000005   0.000000  -0.000000   0.000001  -0.000000   0.000000
     5  C   -0.000215  -0.000001   0.000002   0.000043   0.000000   0.000000
     6  C   -0.000335  -0.000018   0.000010   0.000046   0.000001   0.000000
     7  H    0.000000   0.000000   0.000000  -0.000000  -0.000000  -0.000000
     8  H    0.000000   0.000000   0.000000  -0.000000  -0.000000  -0.000000
     9  H    0.000080   0.000000   0.000004  -0.000106  -0.000000  -0.000000
    10  C    0.004378   0.000835  -0.000821  -0.000151   0.000119  -0.000008
    11  C    0.000271   0.000529  -0.000027  -0.000001  -0.000013  -0.000002
    12  C    0.000615  -0.000076   0.000187  -0.000005  -0.000223  -0.000055
    13  C    0.017402   0.000924  -0.008930   0.000194  -0.001106  -0.000005
    14  C    0.000924   0.050149  -0.002066  -0.000002  -0.006363   0.000049
[...]
 
              Baa    -0.0056    -0.751    -0.268    -0.250  0.0001  0.0000  1.0000
    40 C(13)  Bbb    -0.0032    -0.430    -0.153    -0.143 -0.6589  0.7523  0.0000
              Bcc     0.0088     1.180     0.421     0.394  0.7523  0.6589 -0.0001
 
              Baa    -0.0039    -2.077    -0.741    -0.693 -0.0344  0.3475  0.9371
    41 H(1)   Bbb    -0.0025    -1.315    -0.469    -0.439 -0.6760  0.6825 -0.2779
              Bcc     0.0064     3.392     1.210     1.132  0.7361  0.6430 -0.2114
 
              Baa    -0.0039    -2.077    -0.741    -0.693  0.0347 -0.3476  0.9370
    42 H(1)   Bbb    -0.0025    -1.315    -0.469    -0.439 -0.6760  0.6824  0.2781
              Bcc     0.0064     3.392     1.210     1.131  0.7361  0.6431  0.2113
 
              Baa    -0.0072    -3.852    -1.374    -1.285  0.0003 -0.0003  1.0000
    43 H(1)   Bbb    -0.0058    -3.101    -1.106    -1.034  0.7780 -0.6283 -0.0004
              Bcc     0.0130     6.952     2.481     2.319  0.6283  0.7780  0.0000
 
              Baa    -1.4240  -179.819   -64.164   -59.981  1.0000 -0.0000  0.0000
    44 Co(59) Bbb     0.3020    38.140    13.609    12.722  0.0000  1.0000 -0.0000
              Bcc     1.1220   141.679    50.555    47.259 -0.0000  0.0000  1.0000
 

 ---------------------------------------------------------------------------------

   1 Symmetry operations used in ECPInt.
 ECPInt:  NShTT=   11781 NPrTT=   71406 LenC2=    9542 LenP2D=   32125.
 LDataN:  DoStor=T MaxTD1= 7 Len=  274
 Calling FoFJK, ICntrl=      2127 FMM=F ISym2X=0 I1Cent= 0 IOpClX= 1 NMat=1 NMatS=1 NMatT=0.
 -------------------------------------------------------------------
 Center     Atomic                   Forces (Hartrees/Bohr)
 Number     Number              X              Y              Z
 -------------------------------------------------------------------
      1        6           0.000003356   -0.012210815    0.000011725
      2        6           0.050748532    0.021956786   -0.000006151
      3        6          -0.000770492   -0.001011866    0.000002090
      4        6          -0.000004333    0.008696432   -0.000000685
      5        6           0.000777960   -0.001014126    0.000001634
      6        6          -0.050759192    0.021961991   -0.000006348
      7        1           0.001207261    0.001785503    0.000000068
      8        1           0.000000255   -0.004532958   -0.000000430
      9        1          -0.001209242    0.001784563   -0.000000044
     10        6          -0.003714608   -0.005035493   -0.000001150
     11        6           0.008584368    0.003562843   -0.000014498
     12        6           0.011855051    0.006002013   -0.000000825
     13        6           0.009208117    0.000834556   -0.000001053
     14        6          -0.002143717    0.002756137    0.000000457
     15        6          -0.010635696    0.003878584    0.000001461
     16        1           0.000052730    0.000580226   -0.000000200
     17        6           0.001153523   -0.006650862   -0.000000394
     18        1           0.000316096    0.000575299    0.000000128
     19        1           0.001656329    0.001112512   -0.000000137
     20        1           0.000152571   -0.000134391   -0.000000102
     21        6           0.003725548   -0.005050452   -0.000002948
     22        6          -0.008592970    0.003559806   -0.000014156
     23        6          -0.011868104    0.005994388    0.000000115
     24        6          -0.009220108    0.000852507   -0.000000175
     25        6           0.002159868    0.002757888    0.000000277
     26        6           0.010645266    0.003873795    0.000000717
     27        1          -0.000053747    0.000574988   -0.000000215
     28        6          -0.001166819   -0.006647619   -0.000000505
     29        1          -0.000317564    0.000572963   -0.000000022
     30        1          -0.001658742    0.001115364   -0.000000047
     31        1          -0.000147324   -0.000133690    0.000000005
     32        7          -0.023940266   -0.040483908    0.000007080
     33        7           0.019775379    0.014214803    0.000008407
     34        7           0.023949427   -0.040490406    0.000004059
     35        7          -0.019767965    0.014196461    0.000010453
     36        6           0.000842308   -0.009317291   -0.000001270
     37        1           0.000149691    0.000586471    0.000919429
     38        1           0.000148965    0.000588529   -0.000920265
     39        1           0.000844771    0.001824748    0.000000079
     40        6          -0.000846657   -0.009326826   -0.000000339
     41        1          -0.000147970    0.000588788   -0.000921829
     42        1          -0.000148971    0.000586703    0.000920470
     43        1          -0.000844204    0.001825008    0.000000263
     44       27           0.000001319    0.012840051    0.000004867
 -------------------------------------------------------------------
 Cartesian Forces:  Max     0.050759192 RMS     0.010111291

 GradGradGradGradGradGradGradGradGradGradGradGradGradGradGradGradGradGrad
 Berny optimization.
 Search for a local minimum.
 Step number   1 out of a maximum of    2
 All quantities printed in internal units (Hartrees-Bohrs-Radians)
 Second derivative matrix not updated -- first step.
 ITU=  0
     Eigenvalues ---    0.00056   0.00063   0.00199   0.00249   0.00250
     Eigenvalues ---    0.00393   0.00454   0.00621   0.00669   0.00674
     Eigenvalues ---    0.00683   0.00844   0.00846   0.01332   0.01602
     Eigenvalues ---    0.01827   0.02012   0.02052   0.02551   0.02557
     Eigenvalues ---    0.03084   0.03251   0.04102   0.04202   0.04469
     Eigenvalues ---    0.04530   0.04707   0.05404   0.05541   0.06421
     Eigenvalues ---    0.06423   0.06908   0.06935   0.06992   0.07073
     Eigenvalues ---    0.07074   0.07277   0.07689   0.07754   0.09623
     Eigenvalues ---    0.10178   0.10434   0.10468   0.11786   0.11924
     Eigenvalues ---    0.11973   0.12297   0.12520   0.12834   0.13387
     Eigenvalues ---    0.13394   0.13517   0.13682   0.14835   0.15690
     Eigenvalues ---    0.15916   0.16205   0.19665   0.20295   0.20832
     Eigenvalues ---    0.21329   0.22299   0.24435   0.25823   0.28906
     Eigenvalues ---    0.29673   0.30746   0.30950   0.31014   0.31802
     Eigenvalues ---    0.32817   0.34976   0.36900   0.38612   0.38613
     Eigenvalues ---    0.38669   0.41399   0.42694   0.46197   0.48267
     Eigenvalues ---    0.48703   0.48874   0.49414   0.52122   0.53509
     Eigenvalues ---    0.54229   0.54869   0.57083   0.64097   0.69068
     Eigenvalues ---    0.71718   0.73672   0.74310   0.86784   0.87144
     Eigenvalues ---    0.90533   0.91737   0.94306   0.94612   0.95552
     Eigenvalues ---    0.95620   0.97383   1.01964   1.04639   1.13115
     Eigenvalues ---    1.15885   1.16641   1.18170   1.20903   1.25288
     Eigenvalues ---    1.31019   1.38362   1.38459   1.45556   1.47726
     Eigenvalues ---    1.49778   1.51715   1.52940   1.62092   1.65142
     Eigenvalues ---    1.66226   1.66573   1.77932   1.79550   1.86548
     Eigenvalues ---    1.87981
 Angle between quadratic step and forces=  55.14 degrees.
 Linear search not attempted -- first point.
 B after Tr=    -0.000000   -0.001263   -0.000006
         Rot=    1.000000   -0.000000   -0.000000    0.000000 Ang=  -0.00 deg.
 Variable       Old X    -DE/DX   Delta X   Delta X   Delta X     New X
                                 (Linear)    (Quad)   (Total)
    X1        0.00000   0.00000   0.00000   0.00000   0.00000   0.00000
    Y1        1.33859  -0.01221   0.00000  -0.03089  -0.03216   1.30643
    Z1        0.00014   0.00001   0.00000   0.00001   0.00000   0.00014
    X2       -2.37761   0.05075   0.00000   0.06054   0.06054  -2.31707
    Y2        2.55373   0.02196   0.00000  -0.00009  -0.00136   2.55237
    Z2        0.00009  -0.00001   0.00000  -0.00001  -0.00002   0.00008
    X3       -2.34935  -0.00077   0.00000   0.02537   0.02537  -2.32398
    Y3        5.18937  -0.00101   0.00000   0.00630   0.00504   5.19441
    Z3       -0.00001   0.00000   0.00000   0.00002   0.00002   0.00002
    X4        0.00001  -0.00000   0.00000  -0.00000  -0.00000   0.00000
    Y4        6.41384   0.00870   0.00000   0.03549   0.03423   6.44807
    Z4        0.00002  -0.00000   0.00000   0.00001   0.00001   0.00004
    X5        2.34935   0.00078   0.00000  -0.02536  -0.02536   2.32399
    Y5        5.18937  -0.00101   0.00000   0.00630   0.00504   5.19441
    Z5        0.00009   0.00000   0.00000  -0.00000  -0.00001   0.00008
    X6        2.37763  -0.05076   0.00000  -0.06055  -0.06055   2.31708
    Y6        2.55372   0.02196   0.00000  -0.00009  -0.00136   2.55237
    Z6        0.00017  -0.00001   0.00000  -0.00004  -0.00004   0.00013
    X7       -4.08033   0.00121   0.00000   0.02554   0.02554  -4.05479
    Y7        6.28711   0.00179   0.00000   0.00624   0.00497   6.29208
    Z7       -0.00009   0.00000   0.00000   0.00005   0.00005  -0.00004
    X8        0.00000   0.00000   0.00000   0.00000   0.00000   0.00000
    Y8        8.48061  -0.00453   0.00000   0.02231   0.02105   8.50166
    Z8       -0.00002  -0.00000   0.00000   0.00001   0.00001  -0.00001
    X9        4.08033  -0.00121   0.00000  -0.02554  -0.02554   4.05479
    Y9        6.28711   0.00178   0.00000   0.00623   0.00497   6.29208
    Z9        0.00009  -0.00000   0.00000  -0.00000  -0.00001   0.00009
   X10        6.92516  -0.00371   0.00000  -0.01505  -0.01505   6.91011
   Y10        1.10072  -0.00504   0.00000  -0.01373  -0.01499   1.08573
   Z10       -0.00003  -0.00000   0.00000  -0.00003  -0.00004  -0.00007
   X11        3.57139   0.00858   0.00000  -0.01260  -0.01260   3.55879
   Y11       -1.69779   0.00356   0.00000  -0.00483  -0.00609  -1.70388
   Z11        0.00021  -0.00001   0.00000  -0.00009  -0.00010   0.00011
   X12        7.86270   0.01186   0.00000  -0.00408  -0.00408   7.85861
   Y12       -1.40348   0.00600   0.00000   0.00386   0.00260  -1.40088
   Z12       -0.00018  -0.00000   0.00000   0.00001   0.00001  -0.00017
   X13        8.55200   0.00921   0.00000  -0.01521  -0.01521   8.53679
   Y13        3.14596   0.00083   0.00000  -0.00365  -0.00492   3.14105
   Z13       -0.00010  -0.00000   0.00000  -0.00003  -0.00004  -0.00014
   X14       10.44719  -0.00214   0.00000  -0.01140  -0.01140  10.43579
   Y14       -1.89249   0.00276   0.00000   0.00284   0.00157  -1.89092
   Z14       -0.00038   0.00000   0.00000   0.00007   0.00007  -0.00032
   X15       11.16305  -0.01064   0.00000  -0.02852  -0.02852  11.13453
   Y15        2.64705   0.00388   0.00000   0.00247   0.00121   2.64826
   Z15       -0.00032   0.00000   0.00000   0.00003   0.00002  -0.00030
   X16        7.86315   0.00005   0.00000  -0.01633  -0.01633   7.84682
   Y16        5.07137   0.00058   0.00000  -0.00248  -0.00374   5.06763
   Z16        0.00002  -0.00000   0.00000  -0.00008  -0.00008  -0.00005
   X17       12.08044   0.00115   0.00000  -0.01501  -0.01501  12.06543
   Y17        0.18946  -0.00665   0.00000  -0.00295  -0.00422   0.18524
   Z17       -0.00046  -0.00000   0.00000   0.00008   0.00007  -0.00039
   X18       11.16286   0.00032   0.00000  -0.00683  -0.00683  11.15603
   Y18       -3.81619   0.00058   0.00000   0.00584   0.00457  -3.81162
   Z18       -0.00047   0.00000   0.00000   0.00012   0.00011  -0.00036
   X19       12.46383   0.00166   0.00000  -0.02362  -0.02362  12.44020
   Y19        4.22699   0.00111   0.00000   0.00539   0.00412   4.23111
   Z19       -0.00037  -0.00000   0.00000   0.00003   0.00002  -0.00035
   X20       14.10689   0.00015   0.00000  -0.01413  -0.01413  14.09275
   Y20       -0.13367  -0.00013   0.00000  -0.00057  -0.00183  -0.13551
   Z20       -0.00061  -0.00000   0.00000   0.00012   0.00011  -0.00050
   X21       -6.92516   0.00373   0.00000   0.01505   0.01505  -6.91010
   Y21        1.10072  -0.00505   0.00000  -0.01373  -0.01500   1.08572
   Z21       -0.00006  -0.00000   0.00000  -0.00001  -0.00002  -0.00007
   X22       -3.57137  -0.00859   0.00000   0.01259   0.01259  -3.55877
   Y22       -1.69779   0.00356   0.00000  -0.00482  -0.00608  -1.70387
   Z22        0.00013  -0.00001   0.00000  -0.00007  -0.00008   0.00005
   X23       -7.86268  -0.01187   0.00000   0.00408   0.00408  -7.85860
   Y23       -1.40349   0.00599   0.00000   0.00386   0.00260  -1.40089
   Z23       -0.00012   0.00000   0.00000   0.00002   0.00002  -0.00011
   X24       -8.55199  -0.00922   0.00000   0.01520   0.01520  -8.53679
   Y24        3.14594   0.00085   0.00000  -0.00364  -0.00490   3.14104
   Z24       -0.00010  -0.00000   0.00000  -0.00002  -0.00002  -0.00012
   X25      -10.44719   0.00216   0.00000   0.01141   0.01141 -10.43578
   Y25       -1.89251   0.00276   0.00000   0.00284   0.00157  -1.89094
   Z25       -0.00019   0.00000   0.00000   0.00005   0.00005  -0.00015
   X26      -11.16305   0.01065   0.00000   0.02852   0.02852 -11.13453
   Y26        2.64704   0.00387   0.00000   0.00247   0.00121   2.64825
   Z26       -0.00019   0.00000   0.00000   0.00001   0.00001  -0.00017
   X27       -7.86315  -0.00005   0.00000   0.01631   0.01631  -7.84683
   Y27        5.07136   0.00057   0.00000  -0.00248  -0.00374   5.06762
   Z27       -0.00004  -0.00000   0.00000  -0.00004  -0.00004  -0.00009
   X28      -12.08042  -0.00117   0.00000   0.01500   0.01500 -12.06542
   Y28        0.18944  -0.00665   0.00000  -0.00295  -0.00422   0.18522
   Z28       -0.00023  -0.00000   0.00000   0.00005   0.00004  -0.00019
   X29      -11.16285  -0.00032   0.00000   0.00684   0.00684 -11.15601
   Y29       -3.81620   0.00057   0.00000   0.00583   0.00457  -3.81164
   Z29       -0.00021  -0.00000   0.00000   0.00008   0.00007  -0.00013
   X30      -12.46382  -0.00166   0.00000   0.02361   0.02361 -12.44021
   Y30        4.22697   0.00112   0.00000   0.00539   0.00413   4.23110
   Z30       -0.00020  -0.00000   0.00000   0.00001   0.00001  -0.00019
   X31      -14.10689  -0.00015   0.00000   0.01414   0.01414 -14.09275
   Y31       -0.13369  -0.00013   0.00000  -0.00057  -0.00183  -0.13553
   Z31       -0.00029   0.00000   0.00000   0.00007   0.00006  -0.00022
   X32       -4.31400  -0.02394   0.00000   0.01217   0.01217  -4.30183
   Y32        0.88529  -0.04048   0.00000  -0.03978  -0.04104   0.84425
   Z32        0.00002   0.00001   0.00000  -0.00001  -0.00001   0.00000
   X33       -5.83571   0.01978   0.00000   0.03082   0.03082  -5.80489
   Y33       -3.01868   0.01421   0.00000   0.01503   0.01377  -3.00492
   Z33       -0.00009   0.00001   0.00000   0.00000  -0.00000  -0.00009
   X34        4.31400   0.02395   0.00000  -0.01216  -0.01216   4.30183
   Y34        0.88530  -0.04049   0.00000  -0.03979  -0.04105   0.84425
   Z34        0.00016   0.00000   0.00000  -0.00004  -0.00005   0.00011
   X35        5.83571  -0.01977   0.00000  -0.03082  -0.03082   5.80490
   Y35       -3.01866   0.01420   0.00000   0.01501   0.01375  -3.00491
   Z35       -0.00010   0.00001   0.00000  -0.00001  -0.00002  -0.00012
   X36        6.00795   0.00084   0.00000  -0.02373  -0.02373   5.98422
   Y36       -5.70680  -0.00932   0.00000  -0.00001  -0.00127  -5.70807
   Z36        0.00001  -0.00000   0.00000  -0.00002  -0.00003  -0.00002
   X37        7.00073   0.00015   0.00000  -0.02014  -0.02014   6.98058
   Y37       -6.39238   0.00059   0.00000   0.00515   0.00389  -6.38849
   Z37       -1.68811   0.00092   0.00000   0.00316   0.00314  -1.68497
   X38        6.99993   0.00015   0.00000  -0.02027  -0.02027   6.97965
   Y38       -6.39239   0.00059   0.00000   0.00517   0.00390  -6.38849
   Z38        1.68861  -0.00092   0.00000  -0.00311  -0.00312   1.68549
   X39        4.10299   0.00084   0.00000  -0.02601  -0.02601   4.07698
   Y39       -6.50986   0.00182   0.00000   0.01654   0.01528  -6.49458
   Z39       -0.00047   0.00000   0.00000  -0.00008  -0.00010  -0.00056
   X40       -6.00793  -0.00085   0.00000   0.02373   0.02373  -5.98420
   Y40       -5.70680  -0.00933   0.00000  -0.00001  -0.00127  -5.70807
   Z40        0.00008  -0.00000   0.00000   0.00000  -0.00001   0.00008
   X41       -6.99979  -0.00015   0.00000   0.02027   0.02027  -6.97952
   Y41       -6.39237   0.00059   0.00000   0.00517   0.00390  -6.38847
   Z41        1.68876  -0.00092   0.00000  -0.00310  -0.00311   1.68566
   X42       -7.00082  -0.00015   0.00000   0.02016   0.02016  -6.98066
   Y42       -6.39241   0.00059   0.00000   0.00514   0.00388  -6.38854
   Z42       -1.68796   0.00092   0.00000   0.00317   0.00316  -1.68480
   X43       -4.10297  -0.00084   0.00000   0.02602   0.02602  -4.07696
   Y43       -6.50987   0.00183   0.00000   0.01655   0.01529  -6.49458
   Z43       -0.00052   0.00000   0.00000  -0.00006  -0.00007  -0.00058
   X44        0.00000   0.00000   0.00000   0.00000   0.00000   0.00000
   Y44       -2.22730   0.01284   0.00000   0.01524   0.01398  -2.21332
   Z44        0.00016   0.00000   0.00000  -0.00007  -0.00008   0.00008
         Item               Value     Threshold  Converged?
 Maximum Force            0.050759     0.000450     NO 
 RMS     Force            0.010111     0.000300     NO 
 Maximum Displacement     0.060545     0.001800     NO 
 RMS     Displacement     0.015071     0.001200     NO 
 Predicted change in Energy=-5.755983D-03
 GradGradGradGradGradGradGradGradGradGradGradGradGradGradGradGradGradGrad

 Unable to Open any file for archive entry.
 1\1\GINC-X11P1N5\Force\UPBE1PBE\GenECP\C22H17Co1N4(3)\MAYUMIAO\17-Jul-
 2024\0\\# pbe1pbe em=gd3bj genecp g09default scf=(xqc,maxcycle=64) for
 ce guess=read nosymm\\Title Card\\0,3\C,0.00000019,0.70835276,0.000074
 96\C,-1.25817941,1.35137474,0.00005027\C,-1.24322292,2.74609677,-0.000
 00378\C,0.0000029,3.39405815,0.00001297\C,1.24322181,2.74609791,0.0000
 4773\C,1.25818633,1.35137291,0.00009164\H,-2.15921502,3.32699537,-0.00
 004631\H,0.00000072,4.48774446,-0.00001054\H,2.15921781,3.32699686,0.0
 0004863\C,3.66463426,0.58247425,-0.00001763\C,1.88989669,-0.89843361,0
 .00010948\C,4.16075961,-0.74269123,-0.00009506\C,4.52552565,1.66477177
 ,-0.00005253\C,5.52841655,-1.00146497,-0.00020144\C,5.90723094,1.40075
 878,-0.00017002\H,4.16099841,2.68365336,0.00001288\C,6.39269221,0.1002
 5603,-0.00024129\H,5.9071323,-2.01944045,-0.0002488\H,6.59557255,2.236
 8266,-0.00019564\H,7.46504445,-0.07073709,-0.00032417\C,-3.66463522,0.
 58247597,-0.00002962\C,-1.88988575,-0.89843314,0.00006773\C,-4.1607486
 3,-0.7426932,-0.0000645\C,-4.52551926,1.66475824,-0.00005109\C,-5.5284
 1676,-1.00147354,-0.00010249\C,-5.90723295,1.40075258,-0.00009799\H,-4
 .16099783,2.6836502,-0.00002157\C,-6.39268179,0.10024586,-0.00012116\H
 ,-5.90712437,-2.0194475,-0.00010898\H,-6.59557067,2.23681582,-0.000108
 33\H,-7.4650424,-0.07074818,-0.00015114\N,-2.28286886,0.46847703,0.000
 00804\N,-3.0881233,-1.59741856,-0.00004719\N,2.28286849,0.46848069,0.0
 0008315\N,3.08812682,-1.59740615,-0.00005424\C,3.17927015,-3.01991023,
 0.00000562\H,3.70462417,-3.38270114,-0.89331149\H,3.70420108,-3.382707
 17,0.89357507\H,2.17120934,-3.44487036,-0.00024722\C,-3.17925849,-3.01
 990917,0.00004326\H,-3.70413036,-3.38269802,0.89365548\H,-3.70467464,-
 3.38272017,-0.8932323\H,-2.17119947,-3.44487224,-0.00027437\Co,0.00000
 06,-1.17863391,0.00008401\\Version=ES64L-G16RevC.01\HF=-1212.1302171\S
 2=2.163166\S2-1=0.\S2A=2.003918\RMSD=2.799e-09\RMSF=1.011e-02\Dipole=0
 .0000664,-1.4032755,0.0000999\Quadrupole=8.1719225,11.1123653,-19.2842
 878,-0.0002321,-0.0002911,-0.0007468\PG=C01 [X(C22H17Co1N4)]\\@
 The archive entry for this job was punched.


 IF AT FIRST YOU DON'T SUCCEED, TRY LOOKING IN 
 THE WASTEBASKET FOR THE DIRECTIONS.
 Job cpu time:       0 days  0 hours 52 minutes 18.3 seconds.
 Elapsed time:       0 days  0 hours  0 minutes 56.9 seconds.
 File lengths (MBytes):  RWF=    184 Int=      0 D2E=      0 Chk=     72 Scr=      1
 Normal termination of Gaussian 16 at Wed Jul 17 20:49:20 2024.
