 Entering Gaussian System, Link 0=g16
 Input=JOBS/11_A.gjf
 Output=JOBS/11_A.log
 Initial command:
 /data/app/gaussian/C01-avx2//g16/l1.exe "/tmp/Gau-2052861.inp" -scrdir="/tmp/"
 Entering Link 1 = /data/app/gaussian/C01-avx2//g16/l1.exe PID=   2052862.
  
 Copyright (c) 1988-2019, Gaussian, Inc.  All Rights Reserved.
  
 This is part of the Gaussian(R) 16 program.  It is based on
 the Gaussian(R) 09 system (copyright 2009, Gaussian, Inc.),
 the Gaussian(R) 03 system (copyright 2003, Gaussian, Inc.),
 the Gaussian(R) 98 system (copyright 1998, Gaussian, Inc.),
 the Gaussian(R) 94 system (copyright 1995, Gaussian, Inc.),
 the Gaussian 92(TM) system (copyright 1992, Gaussian, Inc.),
 the Gaussian 90(TM) system (copyright 1990, Gaussian, Inc.),
 the Gaussian 88(TM) system (copyright 1988, Gaussian, Inc.),
 the Gaussian 86(TM) system (copyright 1986, Carnegie Mellon
 University), and the Gaussian 82(TM) system (copyright 1983,
 Carnegie Mellon University). Gaussian is a federally registered
 trademark of Gaussian, Inc.
  
 This software contains proprietary and confidential information,
 including trade secrets, belonging to Gaussian, Inc.
  
 This software is provided under written license and may be
 used, copied, transmitted, or stored only in accord with that
 written license.
  
 The following legend is applicable only to US Government
 contracts under FAR:
  
                    RESTRICTED RIGHTS LEGEND
  
 Use, reproduction and disclosure by the US Government is
 subject to restrictions as set forth in subparagraphs (a)
 and (c) of the Commercial Computer Software - Restricted
 Rights clause in FAR 52.227-19.
  
 Gaussian, Inc.
 340 Quinnipiac St., Bldg. 40, Wallingford CT 06492
  
  
 ---------------------------------------------------------------
 Warning -- This program may not be used in any manner that
 competes with the business of Gaussian, Inc. or will provide
 assistance to any competitor of Gaussian, Inc.  The licensee
 of this program is prohibited from giving any competitor of
 Gaussian, Inc. access to this program.  By using this program,
 the user acknowledges that Gaussian, Inc. is engaged in the
 business of creating and licensing software in the field of
 computational chemistry and represents and warrants to the
 licensee that it is not a competitor of Gaussian, Inc. and that
 it will not use this program in any manner prohibited above.
 ---------------------------------------------------------------
  

 Cite this work as:
 Gaussian 16, Revision C.01,
 M. J. Frisch, G. W. Trucks, H. B. Schlegel, G. E. Scuseria, 
 M. A. Robb, J. R. Cheeseman, G. Scalmani, V. Barone, 
 G. A. Petersson, H. Nakatsuji, X. Li, M. Caricato, A. V. Marenich, 
 J. Bloino, B. G. Janesko, R. Gomperts, B. Mennucci, H. P. Hratchian, 
 J. V. Ortiz, A. F. Izmaylov, J. L. Sonnenberg, D. Williams-Young, 
 F. Ding, F. Lipparini, F. Egidi, J. Goings, B. Peng, A. Petrone, 
 T. Henderson, D. Ranasinghe, V. G. Zakrzewski, J. Gao, N. Rega, 
 G. Zheng, W. Liang, M. Hada, M. Ehara, K. Toyota, R. Fukuda, 
 J. Hasegawa, M. Ishida, T. Nakajima, Y. Honda, O. Kitao, H. Nakai, 
 T. Vreven, K. Throssell, J. A. Montgomery, Jr., J. E. Peralta, 
 F. Ogliaro, M. J. Bearpark, J. J. Heyd, E. N. Brothers, K. N. Kudin, 
 V. N. Staroverov, T. A. Keith, R. Kobayashi, J. Normand, 
 K. Raghavachari, A. P. Rendell, J. C. Burant, S. S. Iyengar, 
 J. Tomasi, M. Cossi, J. M. Millam, M. Klene, C. Adamo, R. Cammi, 
 J. W. Ochterski, R. L. Martin, K. Morokuma, O. Farkas, 
 J. B. Foresman, and D. J. Fox, Gaussian, Inc., Wallingford CT, 2019.
 
 ******************************************
 Gaussian 16:  ES64L-G16RevC.01  3-Jul-2019
                17-Jul-2024 
 ******************************************
 %chk=a.chk
 %nprocshared=56
 Will use up to   56 processors via shared memory.
 %mem=96gb
 ----------------------------------------------------------------------
 # pbe1pbe em=gd3bj genecp g09default scf=(xqc,maxcycle=64) force guess
 =read nosymm
 ----------------------------------------------------------------------
 1/10=7,30=1,38=1,158=3,167=1/1,3;
 2/12=2,15=1,17=6,18=5,40=1/2;
 3/5=7,11=2,16=1,17=8,25=1,27=10,30=1,71=1,74=-13,75=-4,116=-2,124=41,158=3/1,2,3;
 4/5=1,60=-1/1;
 5/5=2,7=64,8=3,13=1,38=6,87=10/2,8;
 6/7=2,8=2,9=2,10=2,28=1,87=10/1;
 7/29=1,30=1,87=10/1,2,3,16;
 1/10=7,30=1,158=3,167=1/3;
 99//99;
 Using 2006 physical constants.
 ----------
 Title Card
 ----------
 Symbolic Z-matrix:
 Charge =  0 Multiplicity = 1
 6                     0.        0.6876    0.00011 
 6                    -1.23711   1.35296   0.00004 
 6                    -1.23767   2.74842  0. 
 6                     0.        3.40559   0.00001 
 6                     1.23767   2.74842   0.00005 
 6                     1.23712   1.35296   0.00008 
 1                    -2.15496   3.32533  -0.00005 
 1                     0.        4.49615  -0.00001 
 1                     2.15496   3.32533   0.00005 
 6                     3.65873   0.57893  -0.00002 
 6                     1.88842  -0.89666   0.00011 
 6                     4.16159  -0.74187  -0.0001 
 6                     4.52437   1.66497  -0.00005 
 6                     5.52889  -1.00175  -0.0002 
 6                     5.90199   1.40069  -0.00017 
 1                     4.1608    2.68377   0.00001 
 6                     6.39182   0.0984   -0.00024 
 1                     5.90772  -2.01909  -0.00025 
 1                     6.59356   2.2359   -0.0002 
 1                     7.46485  -0.07105  -0.00032 
 6                    -3.65872   0.57893  -0.00003 
 6                    -1.88841  -0.89666   0.00006 
 6                    -4.16158  -0.74188  -0.00007 
 6                    -4.52437   1.66496  -0.00005 
 6                    -5.52889  -1.00176  -0.0001 
 6                    -5.90199   1.40068  -0.0001 
 1                    -4.1608    2.68377  -0.00002 
 6                    -6.39181   0.09839  -0.00012 
 1                    -5.90772  -2.0191   -0.00011 
 1                    -6.59356   2.23589  -0.00011 
 1                    -7.46484  -0.07106  -0.00015 
 7                    -2.2788    0.45725   0.00001 
 7                    -3.08179  -1.59326  -0.00004 
 7                     2.2788    0.45725   0.00009 
 7                     3.08179  -1.59325  -0.00005 
 6                     3.17675  -3.02112   0. 
 1                     3.70459  -3.37983  -0.89257 
 1                     3.70417  -3.37983   0.89283 
 1                     2.16889  -3.44333  -0.00025 
 6                    -3.17674  -3.02112   0.00004 
 1                    -3.7041   -3.37982   0.89291 
 1                    -3.70465  -3.37984  -0.89249 
 1                    -2.16888  -3.44334  -0.00027 
 27                    0.       -1.17285   0.00007 
 

 GradGradGradGradGradGradGradGradGradGradGradGradGradGradGradGradGradGrad
 Berny optimization.
 Initialization pass.
 Trust Radius=3.00D-01 FncErr=1.00D-07 GrdErr=1.00D-07 EigMax=2.50D+02 EigMin=1.00D-04
 Number of steps in this run=      2 maximum allowed number of steps=      2.
 GradGradGradGradGradGradGradGradGradGradGradGradGradGradGradGradGradGrad

                          Input orientation:                          
 ---------------------------------------------------------------------
 Center     Atomic      Atomic             Coordinates (Angstroms)
 Number     Number       Type             X           Y           Z
 ---------------------------------------------------------------------
      1          6           0        0.000001    0.687603    0.000112
      2          6           0       -1.237112    1.352958    0.000042
      3          6           0       -1.237673    2.748416   -0.000004
      4          6           0        0.000003    3.405590    0.000014
      5          6           0        1.237674    2.748416    0.000047
      6          6           0        1.237119    1.352956    0.000084
      7          1           0       -2.154960    3.325326   -0.000046
      8          1           0        0.000001    4.496147   -0.000011
      9          1           0        2.154963    3.325328    0.000049
     10          6           0        3.658725    0.578932   -0.000020
     11          6           0        1.888421   -0.896661    0.000107
     12          6           0        4.161586   -0.741872   -0.000100
     13          6           0        4.524369    1.664974   -0.000052
     14          6           0        5.528892   -1.001748   -0.000204
     15          6           0        5.901993    1.400690   -0.000169
     16          1           0        4.160799    2.683770    0.000013
     17          6           0        6.391817    0.098401   -0.000241
     18          1           0        5.907725   -2.019091   -0.000250
     19          1           0        6.593561    2.235901   -0.000196
     20          1           0        7.464846   -0.071046   -0.000323
     21          6           0       -3.658725    0.578931   -0.000031
     22          6           0       -1.888409   -0.896663    0.000057
     23          6           0       -4.161578   -0.741876   -0.000065
     24          6           0       -4.524366    1.664964   -0.000050
     25          6           0       -5.528889   -1.001756   -0.000104
     26          6           0       -5.901993    1.400683   -0.000097
     27          1           0       -4.160798    2.683766   -0.000021
     28          6           0       -6.391810    0.098391   -0.000121
     29          1           0       -5.907717   -2.019099   -0.000110
     30          1           0       -6.593560    2.235891   -0.000109
     31          1           0       -7.464843   -0.071057   -0.000151
     32          7           0       -2.278804    0.457248    0.000013
     33          7           0       -3.081788   -1.593258   -0.000041
     34          7           0        2.278804    0.457252    0.000091
     35          7           0        3.081792   -1.593249   -0.000051
     36          6           0        3.176752   -3.021121    0.000005
     37          1           0        3.704595   -3.379826   -0.892567
     38          1           0        3.704173   -3.379828    0.892828
     39          1           0        2.168890   -3.443334   -0.000246
     40          6           0       -3.176742   -3.021121    0.000043
     41          1           0       -3.704102   -3.379820    0.892908
     42          1           0       -3.704645   -3.379844   -0.892488
     43          1           0       -2.168880   -3.443336   -0.000273
     44         27           0        0.000001   -1.172851    0.000067
 ---------------------------------------------------------------------
                    Distance matrix (angstroms):
                    1          2          3          4          5
     1  C    0.000000
     2  C    1.404688   0.000000
     3  C    2.403911   1.395458   0.000000
     4  C    2.717987   2.396612   1.401328   0.000000
     5  C    2.403910   2.841104   2.475347   1.401323   0.000000
     6  C    1.404690   2.474231   2.841109   2.396614   1.395460
     7  H    3.406089   2.175473   1.083624   2.156457   3.441336
     8  H    3.808544   3.377881   2.141588   1.090557   2.141587
     9  H    3.406090   3.923827   3.441338   2.156454   1.083626
    10  C    3.660337   4.956646   5.355500   4.623445   3.250869
    11  C    2.464958   3.850940   4.801984   4.698455   3.702710
    12  C    4.400248   5.790877   6.429161   5.875390   4.553171
    13  C    4.628732   5.769924   5.863018   4.847642   3.460666
    14  C    5.781223   7.164039   7.736287   7.070590   5.698972
    15  C    5.944914   7.139265   7.265756   6.233227   4.855125
    16  H    4.614858   5.559541   5.398859   4.222943   2.923839
    17  C    6.418915   7.731396   8.076615   7.196721   5.795496
    18  H    6.498260   7.900596   8.589868   8.020495   6.673717
    19  H    6.772906   7.880294   7.847987   6.696505   5.380353
    20  H    7.503297   8.817702   9.147853   8.234736   6.835718
    21  C    3.660340   2.542307   3.250870   4.623450   5.355500
    22  C    2.464953   2.342004   3.702709   4.698455   4.801978
    23  C    4.400245   3.597337   4.553170   5.875392   6.429157
    24  C    4.628729   3.302027   3.460667   4.847648   5.863017
    25  C    5.781225   4.895306   5.698975   7.070597   7.736289
    26  C    5.944915   4.665125   4.855127   6.233234   7.265757
    27  H    4.614858   3.212318   2.923839   4.222948   5.398859
    28  C    6.418911   5.305171   5.795494   7.196723   8.076611
    29  H    6.498259   5.760670   6.673718   8.020499   8.589867
    30  H    6.772905   5.428729   5.380353   6.696511   7.847987
    31  H    7.503297   6.388462   6.835720   8.234743   9.147854
    32  N    2.290418   1.373833   2.516625   3.726349   4.197031
    33  N    3.834026   3.476064   4.717085   5.872471   6.124368
    34  N    2.290416   3.628217   4.197029   3.726343   2.516622
    35  N    3.834021   5.228103   6.124364   5.872462   4.717078
    36  C    4.883275   6.214078   7.264620   7.168985   6.086672
    37  H    5.573586   6.900468   7.923259   7.782195   6.666169
    38  H    5.573313   6.900190   7.923027   7.782023   6.666037
    39  H    4.665696   5.882624   7.066996   7.184137   6.261384
    40  C    4.883270   4.784843   6.086669   7.168982   7.264614
    41  H    5.573275   5.411324   6.666021   7.781994   7.922981
    42  H    5.573622   5.411538   6.666187   7.782229   7.923302
    43  H    4.665694   4.885962   6.261384   7.184137   7.066993
    44  Co   1.860454   2.812501   4.111955   4.578441   4.111955
                    6          7          8          9         10
     6  C    0.000000
     7  H    3.923830   0.000000
     8  H    3.377885   2.452484   0.000000
     9  H    2.175474   4.309923   2.452484   0.000000
    10  C    2.542300   6.429745   5.360115   3.131133   0.000000
    11  C    2.342002   5.845862   5.713887   4.230394   2.304637
    12  C    3.597334   7.512713   6.689965   4.535267   1.413291
    13  C    3.302025   6.882602   5.337176   2.893244   1.388823
    14  C    4.895299   8.818455   7.797146   5.486982   2.448688
    15  C    4.665119   8.283642   6.664486   4.212418   2.389045
    16  H    3.212315   6.348260   4.538386   2.105938   2.163890
    17  C    5.305170   9.135670   7.758575   5.325786   2.775014
    18  H    5.760665   9.673143   8.794858   6.530393   3.436237
    19  H    5.428726   8.816092   6.970204   4.570340   3.370284
    20  H    6.388456  10.201766   8.751181   6.303191   3.861221
    21  C    4.956652   3.131133   5.360117   6.429748   7.317450
    22  C    3.850937   4.230395   5.713885   5.845859   5.740042
    23  C    5.790877   4.535267   6.689964   7.512712   7.931058
    24  C    5.769926   2.893248   5.337180   6.882604   8.254843
    25  C    7.164044   5.486988   7.797150   8.818460   9.322597
    26  C    7.139271   4.212423   6.664490   8.283646   9.595968
    27  H    5.559547   2.105940   4.538389   6.348263   8.097856
    28  C    7.731396   5.325786   7.758575   9.135669  10.062016
    29  H    7.900597   6.530395   8.794860   9.673144   9.912950
    30  H    7.880298   4.570343   6.970208   8.816095  10.385320
    31  H    8.817707   6.303196   8.751185  10.201769  11.142543
    32  N    3.628223   2.870751   4.637419   5.280546   5.938776
    33  N    5.228110   5.005146   6.824828   7.184431   7.081873
    34  N    1.373825   5.280542   4.637415   2.870748   1.385275
    35  N    3.476053   7.184424   6.824820   5.005138   2.247492
    36  C    4.784844   8.288820   8.160947   6.428177   3.632172
    37  H    5.411515   8.949304   8.749378   6.939539   4.058387
    38  H    5.411339   8.949064   8.749230   6.939468   4.058450
    39  H    4.885959   8.031839   8.230397   6.768676   4.289316
    40  C    6.214074   6.428174   8.160943   8.288816   7.725541
    41  H    6.900142   6.939466   8.749201   8.949013   8.407155
    42  H    6.900516   6.939545   8.749408   8.949355   8.407593
    43  H    5.882622   6.768676   8.230396   8.031838   7.080933
    44  Co   2.812502   4.987731   5.668998   4.987733   4.056477
                   11         12         13         14         15
    11  C    0.000000
    12  C    2.278429   0.000000
    13  C    3.675623   2.434034   0.000000
    14  C    3.641988   1.391783   2.849644   0.000000
    15  C    4.624563   2.760360   1.402745   2.431236   0.000000
    16  H    4.240659   3.425641   1.081724   3.931249   2.162881
    17  C    4.612020   2.383273   2.437523   1.398201   1.391360
    18  H    4.173087   2.163398   3.935227   1.085588   3.419785
    19  H    5.652548   3.844689   2.146512   3.408209   1.084364
    20  H    5.637213   3.370688   3.414700   2.148052   2.146745
    21  C    5.740052   7.931064   8.254848   9.322599   9.595969
    22  C    3.776830   6.051975   6.905484   7.418046   8.122081
    23  C    6.051979   8.323164   9.013246   9.693954  10.289123
    24  C    6.905487   9.013247   9.048735  10.400930  10.429708
    25  C    7.418054   9.693959  10.400935  11.057781  11.680617
    26  C    8.122089  10.289128  10.429711  11.680616  11.803986
    27  H    7.029403   8.999837   8.744716  10.366923  10.144262
    28  C    8.339805  10.586794  11.028016  11.971359  12.362587
    29  H    7.876524  10.149984  11.063491  11.481770  12.294886
    30  H    9.041951  11.159760  11.132578  12.547356  12.523434
    31  H    9.389631  11.645765  12.114249  13.027023  13.447615
    32  N    4.381647   6.551069   6.909542   7.942845   8.235018
    33  N    5.018787   7.293238   8.274642   8.630973   9.469532
    34  N    1.409070   2.232210   2.549736   3.562548   3.744005
    35  N    1.381799   1.375063   3.563292   2.517573   4.113053
    36  C    2.484578   2.482917   4.876019   3.100069   5.194165
    37  H    3.203352   2.822081   5.188316   3.127240   5.336503
    38  H    3.203127   2.822297   5.188447   3.127678   5.336778
    39  H    2.562070   3.356894   5.625220   4.153427   6.115605
    40  C    5.492649   7.684141   9.014799   8.936774  10.098308
    41  H    6.183808   8.344176   9.693042   9.576066  10.766983
    42  H    6.184279   8.344630   9.693468   9.576519  10.767415
    43  H    4.790328   6.882783   8.419882   8.075707   9.412947
    44  Co   1.908510   4.183842   5.340708   5.531538   6.438682
                   16         17         18         19         20
    16  H    0.000000
    17  C    3.414905   0.000000
    18  H    5.016837   2.172123   0.000000
    19  H    2.473645   2.147000   4.309911   0.000000
    20  H    4.301830   1.086326   2.493894   2.465997   0.000000
    21  C    8.097857  10.062023   9.912955  10.385322  11.142545
    22  C    7.029396   8.339803   7.876519   9.041946   9.389624
    23  C    8.999834  10.586795  10.149982  11.159757  11.645762
    24  C    8.744715  11.028018  11.063488  11.132577  12.114245
    25  C   10.366925  11.971365  11.481773  12.547359  13.027025
    26  C   10.144264  12.362593  12.294889  12.523437  13.447616
    27  H    8.321597  10.864704  11.112696  10.763681  11.947577
    28  C   10.864701  12.783627  12.480476  13.160122  13.857692
    29  H   11.112695  12.480479  11.815442  13.205567  13.513711
    30  H   10.763681  13.160125  13.205567  13.187121  14.246429
    31  H   11.947578  13.857697  13.513712  14.246431  14.929690
    32  N    6.813654   8.678044   8.552865   9.048893   9.757962
    33  N    8.411185   9.623456   8.999593  10.405520  10.655920
    34  N    2.915353   4.128638   4.393328   4.666982   5.212881
    35  N    4.411025   3.717250   2.857838   5.195663   4.639857
    36  C    5.789138   4.479739   2.908999   6.269838   5.204872
    37  H    6.145894   4.485028   2.738907   6.377997   5.087594
    38  H    6.145961   4.485429   2.739495   6.378281   5.088067
    39  H    6.442755   5.511533   4.000919   7.199405   6.278494
    40  C    9.294367  10.064230   9.139562  11.094823  11.042932
    41  H    9.971010  10.715564   9.748668  11.763325  11.682947
    42  H    9.971418  10.716009   9.749123  11.763751  11.683392
    43  H    8.809441   9.264418   8.201220  10.441940  10.206911
    44  Co   5.673250   6.517009   5.968025   7.422576   7.545721
                   21         22         23         24         25
    21  C    0.000000
    22  C    2.304646   0.000000
    23  C    1.413291   2.278433   0.000000
    24  C    1.388813   3.675622   2.434028   0.000000
    25  C    2.448691   3.641996   1.391789   2.849642   0.000000
    26  C    2.389043   4.624570   2.760362   1.402748   2.431238
    27  H    2.163887   4.240662   3.425642   1.081730   3.931252
    28  C    2.775008   4.612022   2.383271   2.437518   1.398197
    29  H    3.436237   4.173092   2.163400   3.935223   1.085586
    30  H    3.370278   5.652551   3.844688   2.146514   3.408208
    31  H    3.861220   5.637219   3.370691   3.414700   2.148050
    32  N    1.385276   1.409071   2.232205   2.549730   3.562548
    33  N    2.247502   1.381809   1.375064   3.563291   2.517574
    34  N    5.938776   4.381638   6.551064   6.909536   7.942845
    35  N    7.081873   5.018778   7.293233   8.274635   8.630973
    36  C    7.725550   5.492648   7.684143   9.014799   8.936779
    37  H    8.407547   6.184220   8.344580   9.693414   9.576478
    38  H    8.407213   6.183860   8.344225   9.693090   9.576115
    39  H    7.080940   4.790325   6.882783   8.419880   8.075711
    40  C    3.632173   2.484577   2.482914   4.876010   3.100070
    41  H    4.058461   3.203122   2.822310   5.188453   3.127700
    42  H    4.058385   3.203364   2.822071   5.188302   3.127222
    43  H    4.289320   2.562071   3.356893   5.625214   4.153429
    44  Co   4.056478   1.908500   4.183836   5.340701   5.531536
                   26         27         28         29         30
    26  C    0.000000
    27  H    2.162883   0.000000
    28  C    1.391360   3.414905   0.000000
    29  H    3.419786   5.016838   2.172121   0.000000
    30  H    1.084361   2.473646   2.147000   4.309909   0.000000
    31  H    2.146746   4.301833   1.086330   2.493894   2.465997
    32  N    3.744004   2.915353   4.128631   4.393325   4.666979
    33  N    4.113057   4.411032   3.717247   2.857834   5.195664
    34  N    8.235017   6.813651   8.678037   8.552862   9.048890
    35  N    9.469531   8.411181   9.623449   8.999590  10.405515
    36  C   10.098314   9.294373  10.064230   9.139564  11.094826
    37  H   10.767372   9.971368  10.715962   9.749082  11.763705
    38  H   10.767034   9.971064  10.715607   9.748710  11.763372
    39  H    9.412951   8.809444   9.264415   8.201221  10.441940
    40  C    5.194164   5.789136   4.479734   2.908999   6.269834
    41  H    5.336796   6.145971   4.485446   2.739519   6.378295
    42  H    5.336491   6.145888   4.485008   2.738886   6.377982
    43  H    6.115607   6.442756   5.511530   4.000919   7.199403
    44  Co   6.438680   5.673248   6.517001   5.968020   7.422571
                   31         32         33         34         35
    31  H    0.000000
    32  N    5.212879   0.000000
    33  N    4.639857   2.202126   0.000000
    34  N    9.757960   4.557608   5.739385   0.000000
    35  N   10.655918   5.739383   6.163580   2.202121   0.000000
    36  C   11.042935   6.470096   6.419354   3.592406   1.431026
    37  H   11.683352   7.163860   7.074137   4.189616   2.091967
    38  H   11.682992   7.163538   7.073776   4.189490   2.091998
    39  H   10.206913   5.915786   5.567081   3.902134   2.063057
    40  C    5.204872   3.592400   1.431016   6.470089   6.419350
    41  H    5.088088   4.189490   2.091993   7.163477   7.073723
    42  H    5.087576   4.189613   2.091961   7.163914   7.074185
    43  H    6.278494   3.902132   2.063053   5.915782   5.567080
    44  Co   7.545717   2.801816   3.110332   2.801818   3.110333
                   36         37         38         39         40
    36  C    0.000000
    37  H    1.097256   0.000000
    38  H    1.097259   1.785395   0.000000
    39  H    1.092726   1.777262   1.777275   0.000000
    40  C    6.353493   6.948252   6.947857   5.362279   0.000000
    41  H    6.947812   7.620807   7.408275   5.940858   1.097261
    42  H    6.948298   7.409240   7.620888   5.941257   1.097258
    43  H    5.362280   5.941206   5.940910   4.337770   1.092726
    44  Co   3.675302   4.403584   4.403255   3.139932   3.675295
                   41         42         43         44
    41  H    0.000000
    42  H    1.785395   0.000000
    43  H    1.777276   1.777260   0.000000
    44  Co   4.403209   4.403620   3.139927   0.000000
 Symmetry turned off by external request.
 Stoichiometry    C22H17CoN4
 Framework group  C1[X(C22H17CoN4)]
 Deg. of freedom   126
 Full point group                 C1      NOp   1
 Rotational constants (GHZ):           0.4704503           0.1016113           0.0836517
 General basis read from cards:  (5D, 7F)
 ======================================================================================================
                                       Pseudopotential Parameters
 ======================================================================================================
  Center     Atomic      Valence      Angular      Power
  Number     Number     Electrons     Momentum     of R      Exponent        Coefficient   SO-Coeffient
 ======================================================================================================
    1          6
                                   No pseudopotential on this center.
    2          6
                                   No pseudopotential on this center.
    3          6
                                   No pseudopotential on this center.
    4          6
                                   No pseudopotential on this center.
    5          6
                                   No pseudopotential on this center.
    6          6
                                   No pseudopotential on this center.
    7          1
                                   No pseudopotential on this center.
    8          1
                                   No pseudopotential on this center.
    9          1
                                   No pseudopotential on this center.
   10          6
                                   No pseudopotential on this center.
   11          6
                                   No pseudopotential on this center.
   12          6
                                   No pseudopotential on this center.
   13          6
                                   No pseudopotential on this center.
   14          6
                                   No pseudopotential on this center.
   15          6
                                   No pseudopotential on this center.
   16          1
                                   No pseudopotential on this center.
   17          6
                                   No pseudopotential on this center.
   18          1
                                   No pseudopotential on this center.
   19          1
                                   No pseudopotential on this center.
   20          1
                                   No pseudopotential on this center.
   21          6
                                   No pseudopotential on this center.
   22          6
                                   No pseudopotential on this center.
   23          6
                                   No pseudopotential on this center.
   24          6
                                   No pseudopotential on this center.
   25          6
                                   No pseudopotential on this center.
   26          6
                                   No pseudopotential on this center.
   27          1
                                   No pseudopotential on this center.
   28          6
                                   No pseudopotential on this center.
   29          1
                                   No pseudopotential on this center.
   30          1
                                   No pseudopotential on this center.
   31          1
                                   No pseudopotential on this center.
   32          7
                                   No pseudopotential on this center.
   33          7
                                   No pseudopotential on this center.
   34          7
                                   No pseudopotential on this center.
   35          7
                                   No pseudopotential on this center.
   36          6
                                   No pseudopotential on this center.
   37          1
                                   No pseudopotential on this center.
   38          1
                                   No pseudopotential on this center.
   39          1
                                   No pseudopotential on this center.
   40          6
                                   No pseudopotential on this center.
   41          1
                                   No pseudopotential on this center.
   42          1
                                   No pseudopotential on this center.
   43          1
                                   No pseudopotential on this center.
   44         27           17
                                      F and up 
                                                     2        1.0000000        0.00000000    0.00000000
                                      S - F
                                                     2       23.6600000      283.96056600    0.00000000
                                                     2       10.6100000       47.15684600    0.00000000
                                      P - F
                                                     2       25.0400000      182.21223600    0.00000000
                                                     2       10.4400000       35.23335200    0.00000000
                                      D - F
                                                     2       29.5400000      -26.47533300    0.00000000
                                                     2       10.1800000       -1.82578700    0.00000000
 ======================================================================================================
   441 basis functions,   871 primitive gaussians,   473 cartesian basis functions
    97 alpha electrons       97 beta electrons
       nuclear repulsion energy      2499.9459188885 Hartrees.
 NAtoms=   44 NActive=   44 NUniq=   44 SFac= 1.00D+00 NAtFMM=   60 NAOKFM=F Big=F
 Integral buffers will be    131072 words long.
 Raffenetti 2 integral format.
 Two-electron integral symmetry is turned off.
 Nuclear repulsion after empirical dispersion term =     2499.8866700416 Hartrees.
 One-electron integrals computed using PRISM.
   1 Symmetry operations used in ECPInt.
 ECPInt:  NShTT=   11781 NPrTT=   71406 LenC2=    9550 LenP2D=   32135.
 LDataN:  DoStor=T MaxTD1= 6 Len=  172
 NBasis=   441 RedAO= T EigKep=  3.50D-04  NBF=   441
 NBsUse=   441 1.00D-06 EigRej= -1.00D+00 NBFU=   441
 Initial guess from the checkpoint file:  "a.chk"
 B after Tr=     0.000000    0.000155   -0.000003
         Rot=    1.000000   -0.000001   -0.000000    0.000000 Ang=  -0.00 deg.
 Initial guess <Sx>= 0.0000 <Sy>= 0.0000 <Sz>= 0.0000 <S**2>= 0.0000 S= 0.0000
 Requested convergence on RMS density matrix=1.00D-08 within  64 cycles.
 Requested convergence on MAX density matrix=1.00D-06.
 Requested convergence on             energy=1.00D-06.
 No special actions if energy rises.
 EnCoef did     4 forward-backward iterations
 SCF Done:  E(UPBE1PBE) =  -1212.14750574     A.U. after   16 cycles
            NFock= 16  Conv=0.56D-08     -V/T= 2.0552
 <Sx>= 0.0000 <Sy>= 0.0000 <Sz>= 0.0000 <S**2>= 0.0000 S= 0.0000
 <L.S>=  0.00000000000    
 Annihilation of the first spin contaminant:
 S**2 before annihilation     0.0000,   after    -0.0000
 QCSCF skips out because SCF is already converged.

 **********************************************************************

            Population analysis using the SCF Density.

 **********************************************************************

 Alpha  occ. eigenvalues --  -14.45625 -14.45624 -14.44894 -14.44893 -10.27782
 Alpha  occ. eigenvalues --  -10.27781 -10.27471 -10.27471 -10.27324 -10.27323
 Alpha  occ. eigenvalues --  -10.27255 -10.27255 -10.24819 -10.24818 -10.24152
 Alpha  occ. eigenvalues --  -10.24152 -10.23907 -10.23907 -10.23417 -10.23416
 Alpha  occ. eigenvalues --  -10.23351 -10.23351 -10.21391 -10.21387 -10.21129
 Alpha  occ. eigenvalues --  -10.18658  -3.83494  -2.35399  -2.35072  -2.31473
 Alpha  occ. eigenvalues --   -1.06135  -1.06057  -0.96846  -0.96474  -0.88089
 Alpha  occ. eigenvalues --   -0.87842  -0.84833  -0.80091  -0.78696  -0.77812
 Alpha  occ. eigenvalues --   -0.77789  -0.75632  -0.75054  -0.72674  -0.72068
 Alpha  occ. eigenvalues --   -0.66555  -0.65130  -0.64518  -0.63795  -0.62728
 Alpha  occ. eigenvalues --   -0.61333  -0.58793  -0.57316  -0.56392  -0.54044
 Alpha  occ. eigenvalues --   -0.53149  -0.51763  -0.49695  -0.49632  -0.49012
 Alpha  occ. eigenvalues --   -0.47971  -0.47559  -0.47255  -0.46752  -0.46002
 Alpha  occ. eigenvalues --   -0.45845  -0.45044  -0.44978  -0.44543  -0.44002
 Alpha  occ. eigenvalues --   -0.42143  -0.41974  -0.41139  -0.38470  -0.38402
 Alpha  occ. eigenvalues --   -0.38366  -0.37443  -0.37013  -0.36730  -0.36591
 Alpha  occ. eigenvalues --   -0.35788  -0.34483  -0.34410  -0.33677  -0.31470
 Alpha  occ. eigenvalues --   -0.28957  -0.26498  -0.26089  -0.25381  -0.24814
 Alpha  occ. eigenvalues --   -0.24419  -0.21326  -0.21204  -0.20648  -0.16139
 Alpha  occ. eigenvalues --   -0.15673  -0.15235
 Alpha virt. eigenvalues --   -0.04446  -0.02302  -0.00492   0.00095   0.00927
 Alpha virt. eigenvalues --    0.01408   0.02081   0.03516   0.05445   0.05913
 Alpha virt. eigenvalues --    0.06688   0.07510   0.09293   0.09364   0.10186
 Alpha virt. eigenvalues --    0.10897   0.12630   0.13077   0.14219   0.14248
 Alpha virt. eigenvalues --    0.15405   0.15882   0.15904   0.16120   0.16557
 Alpha virt. eigenvalues --    0.16914   0.17442   0.17755   0.17996   0.18424
 Alpha virt. eigenvalues --    0.19207   0.19551   0.19862   0.20569   0.21789
 Alpha virt. eigenvalues --    0.22421   0.23018   0.23202   0.23435   0.24285
 Alpha virt. eigenvalues --    0.26078   0.26154   0.26456   0.27546   0.28228
 Alpha virt. eigenvalues --    0.28407   0.29514   0.29809   0.30729   0.31353
 Alpha virt. eigenvalues --    0.32015   0.33207   0.34138   0.34624   0.34803
 Alpha virt. eigenvalues --    0.36697   0.37811   0.38288   0.39780   0.40006
 Alpha virt. eigenvalues --    0.41500   0.43030   0.44936   0.46013   0.46932
 Alpha virt. eigenvalues --    0.47473   0.48528   0.51162   0.51483   0.51682
 Alpha virt. eigenvalues --    0.52665   0.53688   0.53902   0.56085   0.56341
 Alpha virt. eigenvalues --    0.56633   0.57083   0.57308   0.58098   0.58629
 Alpha virt. eigenvalues --    0.58691   0.59125   0.59565   0.60395   0.61615
 Alpha virt. eigenvalues --    0.61637   0.61762   0.62959   0.63042   0.63070
 Alpha virt. eigenvalues --    0.63451   0.63512   0.63756   0.63858   0.64011
 Alpha virt. eigenvalues --    0.64974   0.65312   0.66548   0.66931   0.67127
 Alpha virt. eigenvalues --    0.67716   0.67934   0.68196   0.68583   0.71000
 Alpha virt. eigenvalues --    0.72343   0.72354   0.74411   0.76296   0.76572
 Alpha virt. eigenvalues --    0.76953   0.77917   0.78503   0.80432   0.80601
 Alpha virt. eigenvalues --    0.81375   0.82090   0.82816   0.83930   0.83971
 Alpha virt. eigenvalues --    0.84220   0.84925   0.85276   0.85939   0.87140
 Alpha virt. eigenvalues --    0.87176   0.87288   0.87994   0.89928   0.90890
 Alpha virt. eigenvalues --    0.91314   0.91589   0.91678   0.92099   0.93041
 Alpha virt. eigenvalues --    0.93643   0.94298   0.94594   0.95990   0.96360
 Alpha virt. eigenvalues --    0.96460   0.97403   0.97849   0.98274   0.98395
 Alpha virt. eigenvalues --    0.98417   1.00197   1.00241   1.01985   1.02076
 Alpha virt. eigenvalues --    1.03157   1.04052   1.04578   1.06397   1.07423
 Alpha virt. eigenvalues --    1.09725   1.09990   1.10667   1.11203   1.14353
 Alpha virt. eigenvalues --    1.14714   1.15307   1.16494   1.16945   1.18412
 Alpha virt. eigenvalues --    1.18535   1.18946   1.21571   1.23809   1.23898
 Alpha virt. eigenvalues --    1.24928   1.25599   1.27062   1.27509   1.29376
 Alpha virt. eigenvalues --    1.29669   1.30678   1.30814   1.33327   1.33816
 Alpha virt. eigenvalues --    1.34819   1.36490   1.36529   1.36733   1.38923
 Alpha virt. eigenvalues --    1.39380   1.41318   1.41632   1.42616   1.42633
 Alpha virt. eigenvalues --    1.45022   1.45082   1.45468   1.47043   1.47647
 Alpha virt. eigenvalues --    1.48028   1.49262   1.50017   1.50018   1.50550
 Alpha virt. eigenvalues --    1.51120   1.51854   1.53903   1.56991   1.58220
 Alpha virt. eigenvalues --    1.58797   1.60741   1.61241   1.65957   1.66016
 Alpha virt. eigenvalues --    1.66623   1.70897   1.71642   1.73518   1.75100
 Alpha virt. eigenvalues --    1.77606   1.79384   1.80147   1.80676   1.82871
 Alpha virt. eigenvalues --    1.82930   1.85306   1.87289   1.87366   1.87416
 Alpha virt. eigenvalues --    1.88008   1.89269   1.90614   1.91467   1.92589
 Alpha virt. eigenvalues --    1.93768   1.95203   1.95853   1.96620   1.97757
 Alpha virt. eigenvalues --    1.98116   1.98182   1.99054   1.99216   1.99903
 Alpha virt. eigenvalues --    2.00156   2.01011   2.02067   2.02194   2.03480
 Alpha virt. eigenvalues --    2.05523   2.07983   2.07991   2.10091   2.12986
 Alpha virt. eigenvalues --    2.13141   2.13870   2.14584   2.15893   2.16175
 Alpha virt. eigenvalues --    2.16385   2.17382   2.17994   2.19052   2.19992
 Alpha virt. eigenvalues --    2.20550   2.20991   2.21697   2.23355   2.24486
 Alpha virt. eigenvalues --    2.24528   2.24655   2.26693   2.27021   2.27618
 Alpha virt. eigenvalues --    2.27838   2.28167   2.28203   2.28649   2.29361
 Alpha virt. eigenvalues --    2.32878   2.36421   2.37795   2.40341   2.40681
 Alpha virt. eigenvalues --    2.41033   2.43280   2.44930   2.46931   2.47913
 Alpha virt. eigenvalues --    2.51612   2.52118   2.53054   2.57091   2.58575
 Alpha virt. eigenvalues --    2.58865   2.59198   2.59420   2.60864   2.63523
 Alpha virt. eigenvalues --    2.63580   2.65495   2.66735   2.68027   2.69076
 Alpha virt. eigenvalues --    2.71157   2.71920   2.72236   2.73931   2.76121
 Alpha virt. eigenvalues --    2.76409   2.76687   2.76764   2.78829   2.78868
 Alpha virt. eigenvalues --    2.83396   2.87131   2.88521   2.89706   2.89910
 Alpha virt. eigenvalues --    2.94107   2.96279   2.96896   2.97665   3.00672
 Alpha virt. eigenvalues --    3.03373   3.06417   3.08348   3.16811   3.20131
 Alpha virt. eigenvalues --    3.20977   3.27765   3.41685   3.44639   3.47515
 Alpha virt. eigenvalues --    3.50282   3.52852   3.63393   5.66468   5.67065
 Alpha virt. eigenvalues --    5.67857   5.68693   5.68951   5.70589   5.72404
 Alpha virt. eigenvalues --   45.81665  46.03800  46.04844  63.11182
  Beta  occ. eigenvalues --  -14.45625 -14.45624 -14.44894 -14.44893 -10.27782
  Beta  occ. eigenvalues --  -10.27781 -10.27471 -10.27471 -10.27324 -10.27323
  Beta  occ. eigenvalues --  -10.27255 -10.27255 -10.24819 -10.24818 -10.24152
  Beta  occ. eigenvalues --  -10.24152 -10.23907 -10.23907 -10.23417 -10.23416
  Beta  occ. eigenvalues --  -10.23351 -10.23351 -10.21391 -10.21387 -10.21129
  Beta  occ. eigenvalues --  -10.18658  -3.83494  -2.35399  -2.35072  -2.31473
  Beta  occ. eigenvalues --   -1.06135  -1.06057  -0.96846  -0.96474  -0.88089
  Beta  occ. eigenvalues --   -0.87842  -0.84833  -0.80091  -0.78696  -0.77812
  Beta  occ. eigenvalues --   -0.77789  -0.75632  -0.75054  -0.72674  -0.72068
  Beta  occ. eigenvalues --   -0.66555  -0.65130  -0.64518  -0.63795  -0.62728
  Beta  occ. eigenvalues --   -0.61333  -0.58793  -0.57316  -0.56392  -0.54044
  Beta  occ. eigenvalues --   -0.53149  -0.51763  -0.49695  -0.49632  -0.49012
  Beta  occ. eigenvalues --   -0.47971  -0.47559  -0.47255  -0.46752  -0.46002
  Beta  occ. eigenvalues --   -0.45845  -0.45044  -0.44978  -0.44543  -0.44002
  Beta  occ. eigenvalues --   -0.42143  -0.41974  -0.41139  -0.38470  -0.38402
  Beta  occ. eigenvalues --   -0.38366  -0.37443  -0.37013  -0.36730  -0.36591
  Beta  occ. eigenvalues --   -0.35788  -0.34483  -0.34410  -0.33677  -0.31470
  Beta  occ. eigenvalues --   -0.28957  -0.26498  -0.26089  -0.25381  -0.24814
  Beta  occ. eigenvalues --   -0.24419  -0.21326  -0.21204  -0.20648  -0.16139
  Beta  occ. eigenvalues --   -0.15673  -0.15235
  Beta virt. eigenvalues --   -0.04446  -0.02302  -0.00492   0.00095   0.00927
  Beta virt. eigenvalues --    0.01408   0.02081   0.03516   0.05445   0.05913
  Beta virt. eigenvalues --    0.06688   0.07510   0.09293   0.09364   0.10186
  Beta virt. eigenvalues --    0.10897   0.12630   0.13077   0.14219   0.14248
  Beta virt. eigenvalues --    0.15405   0.15882   0.15904   0.16120   0.16557
  Beta virt. eigenvalues --    0.16914   0.17442   0.17755   0.17996   0.18424
  Beta virt. eigenvalues --    0.19207   0.19551   0.19862   0.20569   0.21789
  Beta virt. eigenvalues --    0.22421   0.23018   0.23202   0.23435   0.24285
  Beta virt. eigenvalues --    0.26078   0.26154   0.26456   0.27546   0.28228
  Beta virt. eigenvalues --    0.28407   0.29514   0.29809   0.30729   0.31353
  Beta virt. eigenvalues --    0.32015   0.33207   0.34138   0.34624   0.34803
  Beta virt. eigenvalues --    0.36697   0.37811   0.38288   0.39780   0.40006
  Beta virt. eigenvalues --    0.41500   0.43030   0.44936   0.46013   0.46932
  Beta virt. eigenvalues --    0.47473   0.48528   0.51162   0.51483   0.51682
  Beta virt. eigenvalues --    0.52665   0.53688   0.53902   0.56085   0.56341
  Beta virt. eigenvalues --    0.56633   0.57083   0.57308   0.58098   0.58629
  Beta virt. eigenvalues --    0.58691   0.59125   0.59565   0.60395   0.61615
  Beta virt. eigenvalues --    0.61637   0.61762   0.62959   0.63042   0.63070
  Beta virt. eigenvalues --    0.63451   0.63512   0.63756   0.63858   0.64011
  Beta virt. eigenvalues --    0.64974   0.65312   0.66548   0.66931   0.67127
  Beta virt. eigenvalues --    0.67716   0.67934   0.68196   0.68583   0.71000
  Beta virt. eigenvalues --    0.72343   0.72354   0.74411   0.76296   0.76572
  Beta virt. eigenvalues --    0.76953   0.77917   0.78503   0.80432   0.80601
  Beta virt. eigenvalues --    0.81375   0.82090   0.82816   0.83930   0.83971
  Beta virt. eigenvalues --    0.84220   0.84925   0.85276   0.85939   0.87140
  Beta virt. eigenvalues --    0.87176   0.87288   0.87994   0.89928   0.90890
  Beta virt. eigenvalues --    0.91314   0.91589   0.91678   0.92099   0.93041
  Beta virt. eigenvalues --    0.93643   0.94298   0.94594   0.95990   0.96360
  Beta virt. eigenvalues --    0.96460   0.97403   0.97849   0.98274   0.98395
  Beta virt. eigenvalues --    0.98417   1.00197   1.00241   1.01985   1.02076
  Beta virt. eigenvalues --    1.03157   1.04052   1.04578   1.06397   1.07423
  Beta virt. eigenvalues --    1.09725   1.09990   1.10667   1.11203   1.14353
  Beta virt. eigenvalues --    1.14714   1.15307   1.16494   1.16945   1.18412
  Beta virt. eigenvalues --    1.18535   1.18946   1.21571   1.23809   1.23898
  Beta virt. eigenvalues --    1.24928   1.25599   1.27062   1.27509   1.29376
  Beta virt. eigenvalues --    1.29669   1.30678   1.30814   1.33327   1.33816
  Beta virt. eigenvalues --    1.34819   1.36490   1.36529   1.36733   1.38923
  Beta virt. eigenvalues --    1.39380   1.41318   1.41632   1.42616   1.42633
  Beta virt. eigenvalues --    1.45022   1.45082   1.45468   1.47043   1.47647
  Beta virt. eigenvalues --    1.48028   1.49262   1.50017   1.50018   1.50550
  Beta virt. eigenvalues --    1.51120   1.51854   1.53903   1.56991   1.58220
  Beta virt. eigenvalues --    1.58797   1.60741   1.61241   1.65957   1.66016
  Beta virt. eigenvalues --    1.66623   1.70897   1.71642   1.73518   1.75100
  Beta virt. eigenvalues --    1.77606   1.79384   1.80147   1.80676   1.82871
  Beta virt. eigenvalues --    1.82930   1.85306   1.87289   1.87366   1.87416
  Beta virt. eigenvalues --    1.88008   1.89269   1.90614   1.91467   1.92589
  Beta virt. eigenvalues --    1.93768   1.95203   1.95853   1.96620   1.97757
  Beta virt. eigenvalues --    1.98116   1.98182   1.99054   1.99216   1.99903
  Beta virt. eigenvalues --    2.00156   2.01011   2.02067   2.02194   2.03480
  Beta virt. eigenvalues --    2.05523   2.07983   2.07991   2.10091   2.12986
  Beta virt. eigenvalues --    2.13141   2.13870   2.14584   2.15893   2.16175
  Beta virt. eigenvalues --    2.16385   2.17382   2.17994   2.19052   2.19992
  Beta virt. eigenvalues --    2.20550   2.20991   2.21697   2.23355   2.24486
  Beta virt. eigenvalues --    2.24528   2.24655   2.26693   2.27021   2.27618
  Beta virt. eigenvalues --    2.27838   2.28167   2.28203   2.28649   2.29361
  Beta virt. eigenvalues --    2.32878   2.36421   2.37795   2.40341   2.40681
  Beta virt. eigenvalues --    2.41033   2.43280   2.44930   2.46931   2.47913
  Beta virt. eigenvalues --    2.51612   2.52118   2.53054   2.57091   2.58575
  Beta virt. eigenvalues --    2.58865   2.59198   2.59420   2.60864   2.63523
  Beta virt. eigenvalues --    2.63580   2.65495   2.66735   2.68027   2.69076
  Beta virt. eigenvalues --    2.71157   2.71920   2.72236   2.73931   2.76121
  Beta virt. eigenvalues --    2.76409   2.76687   2.76764   2.78829   2.78868
  Beta virt. eigenvalues --    2.83396   2.87131   2.88521   2.89706   2.89910
  Beta virt. eigenvalues --    2.94107   2.96279   2.96896   2.97665   3.00672
  Beta virt. eigenvalues --    3.03373   3.06417   3.08348   3.16811   3.20131
  Beta virt. eigenvalues --    3.20977   3.27765   3.41685   3.44639   3.47515
  Beta virt. eigenvalues --    3.50282   3.52852   3.63393   5.66468   5.67065
  Beta virt. eigenvalues --    5.67857   5.68693   5.68951   5.70589   5.72404
  Beta virt. eigenvalues --   45.81665  46.03800  46.04844  63.11182
          Condensed to atoms (all electrons):
               1          2          3          4          5          6
     1  C    5.160617   0.508409  -0.070462  -0.047571  -0.070462   0.508408
     2  C    0.508409   4.682870   0.532400  -0.006362  -0.039831  -0.016593
     3  C   -0.070462   0.532400   5.027469   0.531895  -0.042437  -0.039831
     4  C   -0.047571  -0.006362   0.531895   4.906079   0.531897  -0.006362
     5  C   -0.070462  -0.039831  -0.042437   0.531897   5.027466   0.532399
     6  C    0.508408  -0.016593  -0.039831  -0.006362   0.532399   4.682875
     7  H    0.004850  -0.039315   0.347655  -0.039526   0.004169   0.000553
     8  H    0.001249   0.002545  -0.036135   0.364871  -0.036135   0.002545
     9  H    0.004850   0.000553   0.004169  -0.039526   0.347654  -0.039315
    10  C    0.007446  -0.000014   0.000001   0.000134  -0.006242  -0.046782
    11  C    0.009832   0.003309  -0.000098   0.000023   0.003631  -0.071879
    12  C   -0.000796   0.000001  -0.000000   0.000000   0.000132   0.007322
    13  C    0.000122   0.000002  -0.000002   0.000055   0.002033  -0.003906
    14  C    0.000000  -0.000000   0.000000  -0.000000   0.000003  -0.000019
    15  C    0.000003  -0.000000   0.000000  -0.000001   0.000083   0.000064
    16  H   -0.000034   0.000001   0.000001   0.000110   0.000117   0.000587
    17  C    0.000000   0.000000  -0.000000   0.000000  -0.000001  -0.000006
    18  H   -0.000000   0.000000   0.000000   0.000000  -0.000000   0.000002
    19  H   -0.000000   0.000000  -0.000000   0.000000   0.000002  -0.000002
    20  H    0.000000  -0.000000   0.000000  -0.000000  -0.000000  -0.000000
    21  C    0.007445  -0.046781  -0.006242   0.000134   0.000001  -0.000014
    22  C    0.009833  -0.071879   0.003631   0.000023  -0.000098   0.003309
    23  C   -0.000796   0.007322   0.000132   0.000000  -0.000000   0.000001
    24  C    0.000122  -0.003906   0.002033   0.000055  -0.000002   0.000002
    25  C    0.000000  -0.000019   0.000003  -0.000000   0.000000  -0.000000
    26  C    0.000003   0.000064   0.000083  -0.000001   0.000000  -0.000000
    27  H   -0.000034   0.000588   0.000117   0.000110   0.000001   0.000001
    28  C    0.000000  -0.000006  -0.000001   0.000000  -0.000000   0.000000
    29  H   -0.000000   0.000002  -0.000000   0.000000   0.000000   0.000000
    30  H   -0.000000  -0.000002   0.000002   0.000000  -0.000000   0.000000
    31  H    0.000000  -0.000000  -0.000000  -0.000000   0.000000  -0.000000
    32  N   -0.033989   0.240867  -0.070700   0.004297   0.000675   0.006500
    33  N    0.002066   0.006307  -0.000156   0.000002   0.000000  -0.000045
    34  N   -0.033988   0.006501   0.000675   0.004297  -0.070700   0.240868
    35  N    0.002066  -0.000045   0.000000   0.000002  -0.000156   0.006307
    36  C   -0.000019   0.000000  -0.000000  -0.000000   0.000002  -0.000038
    37  H   -0.000001  -0.000000   0.000000   0.000000  -0.000000   0.000004
    38  H   -0.000001  -0.000000   0.000000   0.000000  -0.000000   0.000004
    39  H   -0.000018   0.000001   0.000000  -0.000000   0.000000  -0.000010
    40  C   -0.000019  -0.000038   0.000002  -0.000000  -0.000000   0.000000
    41  H   -0.000001   0.000004  -0.000000   0.000000   0.000000  -0.000000
    42  H   -0.000001   0.000004  -0.000000   0.000000   0.000000  -0.000000
    43  H   -0.000018  -0.000010   0.000000  -0.000000   0.000000   0.000001
    44  Co   0.242757  -0.071296   0.006044   0.000656   0.006044  -0.071297
               7          8          9         10         11         12
     1  C    0.004850   0.001249   0.004850   0.007446   0.009832  -0.000796
     2  C   -0.039315   0.002545   0.000553  -0.000014   0.003309   0.000001
     3  C    0.347655  -0.036135   0.004169   0.000001  -0.000098  -0.000000
     4  C   -0.039526   0.364871  -0.039526   0.000134   0.000023   0.000000
     5  C    0.004169  -0.036135   0.347654  -0.006242   0.003631   0.000132
     6  C    0.000553   0.002545  -0.039315  -0.046782  -0.071879   0.007322
     7  H    0.562423  -0.004452  -0.000114  -0.000000  -0.000000   0.000000
     8  H   -0.004452   0.553744  -0.004452  -0.000002   0.000001  -0.000000
     9  H   -0.000114  -0.004452   0.562424   0.000341  -0.000176  -0.000036
    10  C   -0.000000  -0.000002   0.000341   4.649923  -0.070296   0.516130
    11  C   -0.000000   0.000001  -0.000176  -0.070296   4.811711  -0.054432
    12  C    0.000000  -0.000000  -0.000036   0.516130  -0.054432   4.668531
    13  C   -0.000000   0.000003  -0.000174   0.530718   0.004471  -0.056147
    14  C   -0.000000   0.000000  -0.000000  -0.048956   0.004978   0.531006
    15  C   -0.000000   0.000000   0.000137  -0.007050  -0.000056  -0.037739
    16  H   -0.000000  -0.000011   0.006339  -0.033631  -0.000154   0.003732
    17  C    0.000000  -0.000000   0.000001  -0.038924  -0.000056  -0.008802
    18  H    0.000000  -0.000000  -0.000000   0.003836  -0.000213  -0.037986
    19  H    0.000000   0.000000  -0.000009   0.001998   0.000003   0.000913
    20  H   -0.000000  -0.000000   0.000000   0.000881   0.000003   0.002277
    21  C    0.000341  -0.000002  -0.000000  -0.000000  -0.000009   0.000000
    22  C   -0.000176   0.000001  -0.000000  -0.000009  -0.016895  -0.000002
    23  C   -0.000036  -0.000000   0.000000   0.000000  -0.000002  -0.000000
    24  C   -0.000174   0.000003  -0.000000   0.000000   0.000000  -0.000000
    25  C   -0.000000   0.000000  -0.000000  -0.000000   0.000000   0.000000
    26  C    0.000137   0.000000  -0.000000  -0.000000  -0.000000   0.000000
    27  H    0.006339  -0.000011  -0.000000   0.000000   0.000000  -0.000000
    28  C    0.000001  -0.000000   0.000000   0.000000  -0.000000  -0.000000
    29  H   -0.000000  -0.000000   0.000000   0.000000   0.000000  -0.000000
    30  H   -0.000009   0.000000   0.000000   0.000000   0.000000   0.000000
    31  H    0.000000  -0.000000  -0.000000   0.000000   0.000000   0.000000
    32  N   -0.004260  -0.000106   0.000008   0.000000   0.000403   0.000000
    33  N    0.000001  -0.000000  -0.000000  -0.000000   0.000035   0.000000
    34  N    0.000008  -0.000106  -0.004260   0.263288   0.358907  -0.042631
    35  N   -0.000000  -0.000000   0.000001  -0.045919   0.309349   0.264826
    36  C   -0.000000   0.000000  -0.000000   0.005701  -0.044092  -0.049324
    37  H    0.000000  -0.000000   0.000000  -0.000141   0.000515  -0.001236
    38  H    0.000000  -0.000000   0.000000  -0.000141   0.000509  -0.001232
    39  H    0.000000   0.000000   0.000000   0.000013   0.000661   0.002664
    40  C   -0.000000   0.000000  -0.000000   0.000000   0.000017   0.000000
    41  H    0.000000  -0.000000   0.000000  -0.000000  -0.000000  -0.000000
    42  H    0.000000  -0.000000   0.000000  -0.000000  -0.000000  -0.000000
    43  H    0.000000   0.000000   0.000000   0.000000  -0.000003  -0.000000
    44  Co  -0.000342   0.000180  -0.000342   0.006912   0.348631   0.006031
              13         14         15         16         17         18
     1  C    0.000122   0.000000   0.000003  -0.000034   0.000000  -0.000000
     2  C    0.000002  -0.000000  -0.000000   0.000001   0.000000   0.000000
     3  C   -0.000002   0.000000   0.000000   0.000001  -0.000000   0.000000
     4  C    0.000055  -0.000000  -0.000001   0.000110   0.000000   0.000000
     5  C    0.002033   0.000003   0.000083   0.000117  -0.000001  -0.000000
     6  C   -0.003906  -0.000019   0.000064   0.000587  -0.000006   0.000002
     7  H   -0.000000  -0.000000  -0.000000  -0.000000   0.000000   0.000000
     8  H    0.000003   0.000000   0.000000  -0.000011  -0.000000  -0.000000
     9  H   -0.000174  -0.000000   0.000137   0.006339   0.000001  -0.000000
    10  C    0.530718  -0.048956  -0.007050  -0.033631  -0.038924   0.003836
    11  C    0.004471   0.004978  -0.000056  -0.000154  -0.000056  -0.000213
    12  C   -0.056147   0.531006  -0.037739   0.003732  -0.008802  -0.037986
    13  C    5.017628  -0.044103   0.515606   0.356135  -0.035604   0.000256
    14  C   -0.044103   5.021777  -0.037909   0.000434   0.521353   0.362389
    15  C    0.515606  -0.037909   4.897184  -0.036278   0.551188   0.003900
    16  H    0.356135   0.000434  -0.036278   0.512276   0.003704   0.000013
    17  C   -0.035604   0.521353   0.551188   0.003704   4.890898  -0.035631
    18  H    0.000256   0.362389   0.003900   0.000013  -0.035631   0.533267
    19  H   -0.035832   0.004018   0.369183  -0.004044  -0.036189  -0.000147
    20  H    0.003957  -0.036736  -0.036107  -0.000146   0.368420  -0.004204
    21  C    0.000000  -0.000000  -0.000000   0.000000   0.000000   0.000000
    22  C    0.000000   0.000000  -0.000000   0.000000  -0.000000   0.000000
    23  C   -0.000000   0.000000   0.000000  -0.000000  -0.000000  -0.000000
    24  C    0.000000  -0.000000   0.000000   0.000000   0.000000   0.000000
    25  C   -0.000000  -0.000000   0.000000  -0.000000  -0.000000   0.000000
    26  C    0.000000   0.000000  -0.000000   0.000000  -0.000000   0.000000
    27  H    0.000000  -0.000000   0.000000   0.000000   0.000000  -0.000000
    28  C    0.000000  -0.000000  -0.000000   0.000000   0.000000   0.000000
    29  H    0.000000   0.000000   0.000000  -0.000000   0.000000  -0.000000
    30  H   -0.000000  -0.000000   0.000000  -0.000000   0.000000   0.000000
    31  H   -0.000000   0.000000   0.000000  -0.000000   0.000000   0.000000
    32  N   -0.000000   0.000000   0.000000   0.000000  -0.000000  -0.000000
    33  N    0.000000  -0.000000  -0.000000   0.000000   0.000000  -0.000000
    34  N   -0.075037   0.009164   0.005029  -0.004740  -0.000205  -0.000092
    35  N    0.009571  -0.081341  -0.000170  -0.000098   0.005310  -0.007055
    36  C   -0.000120  -0.002648   0.000010   0.000003  -0.000111   0.004141
    37  H   -0.000010   0.002617  -0.000001  -0.000000  -0.000003   0.000542
    38  H   -0.000010   0.002615  -0.000001  -0.000000  -0.000003   0.000541
    39  H    0.000006   0.000024  -0.000000  -0.000000   0.000001  -0.000035
    40  C    0.000000   0.000000  -0.000000   0.000000   0.000000  -0.000000
    41  H   -0.000000  -0.000000   0.000000  -0.000000   0.000000  -0.000000
    42  H   -0.000000  -0.000000   0.000000  -0.000000   0.000000  -0.000000
    43  H    0.000000   0.000000  -0.000000   0.000000  -0.000000   0.000000
    44  Co  -0.001369  -0.001321   0.000187   0.000039   0.000147   0.000017
              19         20         21         22         23         24
     1  C   -0.000000   0.000000   0.007445   0.009833  -0.000796   0.000122
     2  C    0.000000  -0.000000  -0.046781  -0.071879   0.007322  -0.003906
     3  C   -0.000000   0.000000  -0.006242   0.003631   0.000132   0.002033
     4  C    0.000000  -0.000000   0.000134   0.000023   0.000000   0.000055
     5  C    0.000002  -0.000000   0.000001  -0.000098  -0.000000  -0.000002
     6  C   -0.000002  -0.000000  -0.000014   0.003309   0.000001   0.000002
     7  H    0.000000  -0.000000   0.000341  -0.000176  -0.000036  -0.000174
     8  H    0.000000  -0.000000  -0.000002   0.000001  -0.000000   0.000003
     9  H   -0.000009   0.000000  -0.000000  -0.000000   0.000000  -0.000000
    10  C    0.001998   0.000881  -0.000000  -0.000009   0.000000   0.000000
    11  C    0.000003   0.000003  -0.000009  -0.016895  -0.000002   0.000000
    12  C    0.000913   0.002277   0.000000  -0.000002  -0.000000  -0.000000
    13  C   -0.035832   0.003957   0.000000   0.000000  -0.000000   0.000000
    14  C    0.004018  -0.036736  -0.000000   0.000000   0.000000  -0.000000
    15  C    0.369183  -0.036107  -0.000000  -0.000000   0.000000   0.000000
    16  H   -0.004044  -0.000146   0.000000   0.000000  -0.000000   0.000000
    17  C   -0.036189   0.368420   0.000000  -0.000000  -0.000000   0.000000
    18  H   -0.000147  -0.004204   0.000000   0.000000  -0.000000   0.000000
    19  H    0.531464  -0.004536   0.000000   0.000000   0.000000  -0.000000
    20  H   -0.004536   0.535139   0.000000   0.000000   0.000000  -0.000000
    21  C    0.000000   0.000000   4.649909  -0.070295   0.516130   0.530721
    22  C    0.000000   0.000000  -0.070295   4.811716  -0.054432   0.004471
    23  C    0.000000   0.000000   0.516130  -0.054432   4.668537  -0.056148
    24  C   -0.000000  -0.000000   0.530721   0.004471  -0.056148   5.017636
    25  C   -0.000000   0.000000  -0.048955   0.004977   0.531005  -0.044104
    26  C    0.000000   0.000000  -0.007050  -0.000056  -0.037739   0.515604
    27  H   -0.000000  -0.000000  -0.033630  -0.000154   0.003732   0.356134
    28  C    0.000000   0.000000  -0.038924  -0.000056  -0.008802  -0.035604
    29  H    0.000000   0.000000   0.003836  -0.000213  -0.037986   0.000256
    30  H    0.000000   0.000000   0.001998   0.000003   0.000913  -0.035831
    31  H    0.000000   0.000000   0.000881   0.000003   0.002277   0.003957
    32  N   -0.000000   0.000000   0.263285   0.358906  -0.042630  -0.075039
    33  N   -0.000000  -0.000000  -0.045919   0.309345   0.264827   0.009571
    34  N   -0.000089   0.000004   0.000000   0.000403   0.000000  -0.000000
    35  N    0.000004  -0.000098  -0.000000   0.000035   0.000000   0.000000
    36  C   -0.000000  -0.000002   0.000000   0.000017   0.000000   0.000000
    37  H   -0.000000  -0.000000  -0.000000  -0.000000  -0.000000  -0.000000
    38  H   -0.000000  -0.000000  -0.000000  -0.000000  -0.000000  -0.000000
    39  H   -0.000000  -0.000000   0.000000  -0.000003  -0.000000   0.000000
    40  C    0.000000  -0.000000   0.005701  -0.044091  -0.049324  -0.000120
    41  H   -0.000000  -0.000000  -0.000141   0.000509  -0.001232  -0.000010
    42  H   -0.000000  -0.000000  -0.000140   0.000515  -0.001236  -0.000010
    43  H   -0.000000   0.000000   0.000013   0.000661   0.002664   0.000006
    44  Co   0.000015  -0.000010   0.006912   0.348631   0.006031  -0.001369
              25         26         27         28         29         30
     1  C    0.000000   0.000003  -0.000034   0.000000  -0.000000  -0.000000
     2  C   -0.000019   0.000064   0.000588  -0.000006   0.000002  -0.000002
     3  C    0.000003   0.000083   0.000117  -0.000001  -0.000000   0.000002
     4  C   -0.000000  -0.000001   0.000110   0.000000   0.000000   0.000000
     5  C    0.000000   0.000000   0.000001  -0.000000   0.000000  -0.000000
     6  C   -0.000000  -0.000000   0.000001   0.000000   0.000000   0.000000
     7  H   -0.000000   0.000137   0.006339   0.000001  -0.000000  -0.000009
     8  H    0.000000   0.000000  -0.000011  -0.000000  -0.000000   0.000000
     9  H   -0.000000  -0.000000  -0.000000   0.000000   0.000000   0.000000
    10  C   -0.000000  -0.000000   0.000000   0.000000   0.000000   0.000000
    11  C    0.000000  -0.000000   0.000000  -0.000000   0.000000   0.000000
    12  C    0.000000   0.000000  -0.000000  -0.000000  -0.000000   0.000000
    13  C   -0.000000   0.000000   0.000000   0.000000   0.000000  -0.000000
    14  C   -0.000000   0.000000  -0.000000  -0.000000   0.000000  -0.000000
    15  C    0.000000  -0.000000   0.000000  -0.000000   0.000000   0.000000
    16  H   -0.000000   0.000000   0.000000   0.000000  -0.000000  -0.000000
    17  C   -0.000000  -0.000000   0.000000   0.000000   0.000000   0.000000
    18  H    0.000000   0.000000  -0.000000   0.000000  -0.000000   0.000000
    19  H   -0.000000   0.000000  -0.000000   0.000000   0.000000   0.000000
    20  H    0.000000   0.000000  -0.000000   0.000000   0.000000   0.000000
    21  C   -0.048955  -0.007050  -0.033630  -0.038924   0.003836   0.001998
    22  C    0.004977  -0.000056  -0.000154  -0.000056  -0.000213   0.000003
    23  C    0.531005  -0.037739   0.003732  -0.008802  -0.037986   0.000913
    24  C   -0.044104   0.515604   0.356134  -0.035604   0.000256  -0.035831
    25  C    5.021772  -0.037909   0.000434   0.521354   0.362389   0.004018
    26  C   -0.037909   4.897184  -0.036278   0.551189   0.003900   0.369184
    27  H    0.000434  -0.036278   0.512277   0.003704   0.000013  -0.004044
    28  C    0.521354   0.551189   0.003704   4.890898  -0.035631  -0.036189
    29  H    0.362389   0.003900   0.000013  -0.035631   0.533266  -0.000147
    30  H    0.004018   0.369184  -0.004044  -0.036189  -0.000147   0.531462
    31  H   -0.036737  -0.036107  -0.000146   0.368419  -0.004204  -0.004536
    32  N    0.009164   0.005029  -0.004740  -0.000205  -0.000092  -0.000089
    33  N   -0.081340  -0.000170  -0.000098   0.005310  -0.007055   0.000004
    34  N    0.000000   0.000000   0.000000  -0.000000  -0.000000  -0.000000
    35  N   -0.000000  -0.000000   0.000000   0.000000  -0.000000  -0.000000
    36  C    0.000000  -0.000000   0.000000   0.000000  -0.000000   0.000000
    37  H   -0.000000   0.000000  -0.000000   0.000000  -0.000000  -0.000000
    38  H   -0.000000   0.000000  -0.000000   0.000000  -0.000000  -0.000000
    39  H    0.000000  -0.000000   0.000000  -0.000000   0.000000  -0.000000
    40  C   -0.002648   0.000010   0.000003  -0.000111   0.004141  -0.000000
    41  H    0.002615  -0.000001  -0.000000  -0.000003   0.000541  -0.000000
    42  H    0.002617  -0.000001  -0.000000  -0.000003   0.000542  -0.000000
    43  H    0.000024  -0.000000  -0.000000   0.000001  -0.000035  -0.000000
    44  Co  -0.001321   0.000187   0.000039   0.000147   0.000017   0.000015
              31         32         33         34         35         36
     1  C    0.000000  -0.033989   0.002066  -0.033988   0.002066  -0.000019
     2  C   -0.000000   0.240867   0.006307   0.006501  -0.000045   0.000000
     3  C   -0.000000  -0.070700  -0.000156   0.000675   0.000000  -0.000000
     4  C   -0.000000   0.004297   0.000002   0.004297   0.000002  -0.000000
     5  C    0.000000   0.000675   0.000000  -0.070700  -0.000156   0.000002
     6  C   -0.000000   0.006500  -0.000045   0.240868   0.006307  -0.000038
     7  H    0.000000  -0.004260   0.000001   0.000008  -0.000000  -0.000000
     8  H   -0.000000  -0.000106  -0.000000  -0.000106  -0.000000   0.000000
     9  H   -0.000000   0.000008  -0.000000  -0.004260   0.000001  -0.000000
    10  C    0.000000   0.000000  -0.000000   0.263288  -0.045919   0.005701
    11  C    0.000000   0.000403   0.000035   0.358907   0.309349  -0.044092
    12  C    0.000000   0.000000   0.000000  -0.042631   0.264826  -0.049324
    13  C   -0.000000  -0.000000   0.000000  -0.075037   0.009571  -0.000120
    14  C    0.000000   0.000000  -0.000000   0.009164  -0.081341  -0.002648
    15  C    0.000000   0.000000  -0.000000   0.005029  -0.000170   0.000010
    16  H   -0.000000   0.000000   0.000000  -0.004740  -0.000098   0.000003
    17  C    0.000000  -0.000000   0.000000  -0.000205   0.005310  -0.000111
    18  H    0.000000  -0.000000  -0.000000  -0.000092  -0.007055   0.004141
    19  H    0.000000  -0.000000  -0.000000  -0.000089   0.000004  -0.000000
    20  H    0.000000   0.000000  -0.000000   0.000004  -0.000098  -0.000002
    21  C    0.000881   0.263285  -0.045919   0.000000  -0.000000   0.000000
    22  C    0.000003   0.358906   0.309345   0.000403   0.000035   0.000017
    23  C    0.002277  -0.042630   0.264827   0.000000   0.000000   0.000000
    24  C    0.003957  -0.075039   0.009571  -0.000000   0.000000   0.000000
    25  C   -0.036737   0.009164  -0.081340   0.000000  -0.000000   0.000000
    26  C   -0.036107   0.005029  -0.000170   0.000000  -0.000000  -0.000000
    27  H   -0.000146  -0.004740  -0.000098   0.000000   0.000000   0.000000
    28  C    0.368419  -0.000205   0.005310  -0.000000   0.000000   0.000000
    29  H   -0.004204  -0.000092  -0.007055  -0.000000  -0.000000  -0.000000
    30  H   -0.004536  -0.000089   0.000004  -0.000000  -0.000000   0.000000
    31  H    0.535142   0.000004  -0.000098   0.000000  -0.000000  -0.000000
    32  N    0.000004   7.186911  -0.063582  -0.000172   0.000001  -0.000000
    33  N   -0.000098  -0.063582   7.067848   0.000001  -0.000000  -0.000000
    34  N    0.000000  -0.000172   0.000001   7.186898  -0.063581   0.004898
    35  N   -0.000000   0.000001  -0.000000  -0.063581   7.067849   0.298228
    36  C   -0.000000  -0.000000  -0.000000   0.004898   0.298228   5.058599
    37  H   -0.000000   0.000000   0.000000  -0.000065  -0.041742   0.377616
    38  H   -0.000000   0.000000   0.000000  -0.000065  -0.041745   0.377622
    39  H    0.000000  -0.000000   0.000001   0.000153  -0.032085   0.376761
    40  C   -0.000002   0.004898   0.298229  -0.000000  -0.000000   0.000000
    41  H   -0.000000  -0.000065  -0.041746   0.000000   0.000000  -0.000000
    42  H   -0.000000  -0.000065  -0.041742   0.000000   0.000000  -0.000000
    43  H   -0.000000   0.000153  -0.032086  -0.000000   0.000001  -0.000001
    44  Co  -0.000010  -0.076401  -0.054212  -0.076401  -0.054212  -0.006249
              37         38         39         40         41         42
     1  C   -0.000001  -0.000001  -0.000018  -0.000019  -0.000001  -0.000001
     2  C   -0.000000  -0.000000   0.000001  -0.000038   0.000004   0.000004
     3  C    0.000000   0.000000   0.000000   0.000002  -0.000000  -0.000000
     4  C    0.000000   0.000000  -0.000000  -0.000000   0.000000   0.000000
     5  C   -0.000000  -0.000000   0.000000  -0.000000   0.000000   0.000000
     6  C    0.000004   0.000004  -0.000010   0.000000  -0.000000  -0.000000
     7  H    0.000000   0.000000   0.000000  -0.000000   0.000000   0.000000
     8  H   -0.000000  -0.000000   0.000000   0.000000  -0.000000  -0.000000
     9  H    0.000000   0.000000   0.000000  -0.000000   0.000000   0.000000
    10  C   -0.000141  -0.000141   0.000013   0.000000  -0.000000  -0.000000
    11  C    0.000515   0.000509   0.000661   0.000017  -0.000000  -0.000000
    12  C   -0.001236  -0.001232   0.002664   0.000000  -0.000000  -0.000000
    13  C   -0.000010  -0.000010   0.000006   0.000000  -0.000000  -0.000000
    14  C    0.002617   0.002615   0.000024   0.000000  -0.000000  -0.000000
    15  C   -0.000001  -0.000001  -0.000000  -0.000000   0.000000   0.000000
    16  H   -0.000000  -0.000000  -0.000000   0.000000  -0.000000  -0.000000
    17  C   -0.000003  -0.000003   0.000001   0.000000   0.000000   0.000000
    18  H    0.000542   0.000541  -0.000035  -0.000000  -0.000000  -0.000000
    19  H   -0.000000  -0.000000  -0.000000   0.000000  -0.000000  -0.000000
    20  H   -0.000000  -0.000000  -0.000000  -0.000000  -0.000000  -0.000000
    21  C   -0.000000  -0.000000   0.000000   0.005701  -0.000141  -0.000140
    22  C   -0.000000  -0.000000  -0.000003  -0.044091   0.000509   0.000515
    23  C   -0.000000  -0.000000  -0.000000  -0.049324  -0.001232  -0.001236
    24  C   -0.000000  -0.000000   0.000000  -0.000120  -0.000010  -0.000010
    25  C   -0.000000  -0.000000   0.000000  -0.002648   0.002615   0.002617
    26  C    0.000000   0.000000  -0.000000   0.000010  -0.000001  -0.000001
    27  H   -0.000000  -0.000000   0.000000   0.000003  -0.000000  -0.000000
    28  C    0.000000   0.000000  -0.000000  -0.000111  -0.000003  -0.000003
    29  H   -0.000000  -0.000000   0.000000   0.004141   0.000541   0.000542
    30  H   -0.000000  -0.000000  -0.000000  -0.000000  -0.000000  -0.000000
    31  H   -0.000000  -0.000000   0.000000  -0.000002  -0.000000  -0.000000
    32  N    0.000000   0.000000  -0.000000   0.004898  -0.000065  -0.000065
    33  N    0.000000   0.000000   0.000001   0.298229  -0.041746  -0.041742
    34  N   -0.000065  -0.000065   0.000153  -0.000000   0.000000   0.000000
    35  N   -0.041742  -0.041745  -0.032085  -0.000000   0.000000   0.000000
    36  C    0.377616   0.377622   0.376761   0.000000  -0.000000  -0.000000
    37  H    0.524428  -0.040286  -0.024707  -0.000000   0.000000  -0.000000
    38  H   -0.040286   0.524424  -0.024713  -0.000000  -0.000000   0.000000
    39  H   -0.024707  -0.024713   0.469934  -0.000001   0.000000   0.000000
    40  C   -0.000000  -0.000000  -0.000001   5.058599   0.377622   0.377616
    41  H    0.000000  -0.000000   0.000000   0.377622   0.524427  -0.040287
    42  H   -0.000000   0.000000   0.000000   0.377616  -0.040287   0.524432
    43  H    0.000000   0.000000  -0.000026   0.376761  -0.024714  -0.024707
    44  Co   0.000569   0.000572   0.007850  -0.006248   0.000572   0.000569
              43         44
     1  C   -0.000018   0.242757
     2  C   -0.000010  -0.071296
     3  C    0.000000   0.006044
     4  C   -0.000000   0.000656
     5  C    0.000000   0.006044
     6  C    0.000001  -0.071297
     7  H    0.000000  -0.000342
     8  H    0.000000   0.000180
     9  H    0.000000  -0.000342
    10  C    0.000000   0.006912
    11  C   -0.000003   0.348631
    12  C   -0.000000   0.006031
    13  C    0.000000  -0.001369
    14  C    0.000000  -0.001321
    15  C   -0.000000   0.000187
    16  H    0.000000   0.000039
    17  C   -0.000000   0.000147
    18  H    0.000000   0.000017
    19  H   -0.000000   0.000015
    20  H    0.000000  -0.000010
    21  C    0.000013   0.006912
    22  C    0.000661   0.348631
    23  C    0.002664   0.006031
    24  C    0.000006  -0.001369
    25  C    0.000024  -0.001321
    26  C   -0.000000   0.000187
    27  H   -0.000000   0.000039
    28  C    0.000001   0.000147
    29  H   -0.000035   0.000017
    30  H   -0.000000   0.000015
    31  H   -0.000000  -0.000010
    32  N    0.000153  -0.076401
    33  N   -0.032086  -0.054212
    34  N   -0.000000  -0.076401
    35  N    0.000001  -0.054212
    36  C   -0.000001  -0.006249
    37  H    0.000000   0.000569
    38  H    0.000000   0.000572
    39  H   -0.000026   0.007850
    40  C    0.376761  -0.006248
    41  H   -0.024714   0.000572
    42  H   -0.024707   0.000569
    43  H    0.469935   0.007850
    44  Co   0.007850  16.454362
          Atomic-Atomic Spin Densities.
               1          2          3          4          5          6
     1  C    0.000001  -0.000000   0.000000  -0.000000   0.000000  -0.000000
     2  C   -0.000000  -0.000000   0.000000   0.000000   0.000000  -0.000000
     3  C    0.000000   0.000000   0.000000  -0.000000   0.000000   0.000000
     4  C   -0.000000   0.000000  -0.000000  -0.000000  -0.000000   0.000000
     5  C    0.000000   0.000000   0.000000  -0.000000   0.000000   0.000000
     6  C   -0.000000  -0.000000   0.000000   0.000000   0.000000  -0.000000
     7  H    0.000000  -0.000000   0.000000  -0.000000   0.000000  -0.000000
     8  H   -0.000000  -0.000000  -0.000000   0.000000  -0.000000  -0.000000
     9  H    0.000000  -0.000000   0.000000  -0.000000   0.000000  -0.000000
    10  C    0.000000  -0.000000  -0.000000   0.000000   0.000000   0.000000
    11  C    0.000000   0.000000  -0.000000   0.000000  -0.000000  -0.000000
    12  C   -0.000000  -0.000000  -0.000000   0.000000   0.000000   0.000000
    13  C    0.000000   0.000000  -0.000000   0.000000   0.000000   0.000000
    14  C    0.000000   0.000000  -0.000000   0.000000   0.000000  -0.000000
    15  C   -0.000000   0.000000  -0.000000   0.000000  -0.000000  -0.000000
    16  H   -0.000000  -0.000000   0.000000   0.000000   0.000000   0.000000
    17  C    0.000000  -0.000000   0.000000   0.000000   0.000000   0.000000
    18  H   -0.000000  -0.000000   0.000000  -0.000000  -0.000000   0.000000
    19  H   -0.000000  -0.000000   0.000000  -0.000000   0.000000   0.000000
    20  H    0.000000   0.000000  -0.000000   0.000000   0.000000   0.000000
    21  C    0.000000   0.000000   0.000000   0.000000  -0.000000  -0.000000
    22  C    0.000000  -0.000000  -0.000000   0.000000  -0.000000   0.000000
    23  C   -0.000000   0.000000   0.000000   0.000000  -0.000000  -0.000000
    24  C    0.000000   0.000000   0.000000   0.000000  -0.000000   0.000000
    25  C    0.000000  -0.000000   0.000000   0.000000  -0.000000   0.000000
    26  C   -0.000000  -0.000000  -0.000000   0.000000  -0.000000   0.000000
    27  H   -0.000000   0.000000   0.000000   0.000000   0.000000  -0.000000
    28  C    0.000000   0.000000   0.000000   0.000000   0.000000  -0.000000
    29  H   -0.000000   0.000000  -0.000000  -0.000000   0.000000  -0.000000
    30  H   -0.000000   0.000000   0.000000  -0.000000   0.000000  -0.000000
    31  H    0.000000   0.000000   0.000000   0.000000  -0.000000   0.000000
    32  N    0.000000   0.000000   0.000000  -0.000000   0.000000  -0.000000
    33  N    0.000000  -0.000000   0.000000   0.000000  -0.000000   0.000000
    34  N    0.000000  -0.000000   0.000000  -0.000000   0.000000   0.000000
    35  N    0.000000   0.000000  -0.000000   0.000000   0.000000  -0.000000
    36  C    0.000000   0.000000  -0.000000   0.000000  -0.000000  -0.000000
    37  H   -0.000000   0.000000   0.000000  -0.000000  -0.000000   0.000000
    38  H   -0.000000   0.000000   0.000000  -0.000000  -0.000000   0.000000
    39  H   -0.000000  -0.000000   0.000000  -0.000000   0.000000   0.000000
    40  C    0.000000  -0.000000  -0.000000   0.000000  -0.000000   0.000000
    41  H   -0.000000   0.000000  -0.000000  -0.000000   0.000000   0.000000
    42  H   -0.000000   0.000000  -0.000000  -0.000000   0.000000   0.000000
    43  H   -0.000000   0.000000   0.000000  -0.000000   0.000000  -0.000000
    44  Co  -0.000000   0.000000  -0.000000  -0.000000  -0.000000   0.000000
               7          8          9         10         11         12
     1  C    0.000000  -0.000000   0.000000   0.000000   0.000000  -0.000000
     2  C   -0.000000  -0.000000  -0.000000  -0.000000   0.000000  -0.000000
     3  C    0.000000  -0.000000   0.000000  -0.000000  -0.000000  -0.000000
     4  C   -0.000000   0.000000  -0.000000   0.000000   0.000000   0.000000
     5  C    0.000000  -0.000000   0.000000   0.000000  -0.000000   0.000000
     6  C   -0.000000  -0.000000  -0.000000   0.000000  -0.000000   0.000000
     7  H    0.000000  -0.000000   0.000000  -0.000000   0.000000   0.000000
     8  H   -0.000000   0.000000  -0.000000  -0.000000   0.000000   0.000000
     9  H    0.000000  -0.000000   0.000000  -0.000000   0.000000  -0.000000
    10  C   -0.000000  -0.000000  -0.000000  -0.000000   0.000000  -0.000000
    11  C    0.000000   0.000000   0.000000   0.000000   0.000000   0.000000
    12  C    0.000000   0.000000  -0.000000  -0.000000   0.000000  -0.000000
    13  C    0.000000   0.000000   0.000000   0.000000  -0.000000  -0.000000
    14  C   -0.000000   0.000000  -0.000000  -0.000000  -0.000000   0.000000
    15  C    0.000000   0.000000   0.000000  -0.000000  -0.000000   0.000000
    16  H   -0.000000  -0.000000  -0.000000  -0.000000   0.000000  -0.000000
    17  C   -0.000000  -0.000000  -0.000000   0.000000   0.000000  -0.000000
    18  H    0.000000  -0.000000   0.000000   0.000000   0.000000  -0.000000
    19  H   -0.000000  -0.000000  -0.000000   0.000000   0.000000  -0.000000
    20  H   -0.000000   0.000000  -0.000000  -0.000000  -0.000000   0.000000
    21  C   -0.000000  -0.000000  -0.000000  -0.000000   0.000000  -0.000000
    22  C    0.000000   0.000000   0.000000   0.000000   0.000000   0.000000
    23  C   -0.000000   0.000000   0.000000  -0.000000   0.000000   0.000000
    24  C    0.000000   0.000000   0.000000   0.000000  -0.000000  -0.000000
    25  C   -0.000000   0.000000  -0.000000   0.000000  -0.000000  -0.000000
    26  C    0.000000   0.000000   0.000000   0.000000   0.000000  -0.000000
    27  H   -0.000000  -0.000000  -0.000000  -0.000000   0.000000   0.000000
    28  C   -0.000000  -0.000000  -0.000000  -0.000000   0.000000   0.000000
    29  H    0.000000  -0.000000   0.000000  -0.000000   0.000000   0.000000
    30  H   -0.000000  -0.000000  -0.000000  -0.000000  -0.000000   0.000000
    31  H   -0.000000   0.000000  -0.000000   0.000000  -0.000000  -0.000000
    32  N   -0.000000  -0.000000  -0.000000  -0.000000   0.000000   0.000000
    33  N   -0.000000   0.000000  -0.000000   0.000000  -0.000000  -0.000000
    34  N   -0.000000  -0.000000  -0.000000  -0.000000  -0.000000   0.000000
    35  N   -0.000000   0.000000  -0.000000   0.000000  -0.000000  -0.000000
    36  C   -0.000000   0.000000   0.000000   0.000000  -0.000000   0.000000
    37  H    0.000000  -0.000000   0.000000   0.000000   0.000000   0.000000
    38  H    0.000000  -0.000000   0.000000   0.000000   0.000000   0.000000
    39  H    0.000000  -0.000000   0.000000  -0.000000   0.000000   0.000000
    40  C    0.000000   0.000000  -0.000000   0.000000  -0.000000  -0.000000
    41  H    0.000000  -0.000000   0.000000  -0.000000   0.000000   0.000000
    42  H    0.000000  -0.000000   0.000000  -0.000000   0.000000   0.000000
    43  H    0.000000  -0.000000   0.000000  -0.000000   0.000000   0.000000
    44  Co   0.000000   0.000000   0.000000   0.000000   0.000000   0.000000
              13         14         15         16         17         18
     1  C    0.000000   0.000000  -0.000000  -0.000000   0.000000  -0.000000
     2  C    0.000000   0.000000   0.000000  -0.000000  -0.000000  -0.000000
     3  C   -0.000000  -0.000000  -0.000000   0.000000   0.000000   0.000000
     4  C    0.000000   0.000000   0.000000   0.000000   0.000000  -0.000000
     5  C    0.000000   0.000000  -0.000000   0.000000   0.000000  -0.000000
     6  C    0.000000  -0.000000  -0.000000   0.000000   0.000000   0.000000
     7  H    0.000000  -0.000000   0.000000  -0.000000  -0.000000   0.000000
     8  H    0.000000   0.000000   0.000000  -0.000000  -0.000000  -0.000000
     9  H    0.000000  -0.000000   0.000000  -0.000000  -0.000000   0.000000
    10  C    0.000000  -0.000000  -0.000000  -0.000000   0.000000   0.000000
    11  C   -0.000000  -0.000000  -0.000000   0.000000   0.000000   0.000000
    12  C   -0.000000   0.000000   0.000000  -0.000000  -0.000000  -0.000000
    13  C    0.000000   0.000000  -0.000000   0.000000  -0.000000  -0.000000
    14  C    0.000000   0.000000  -0.000000   0.000000  -0.000000  -0.000000
    15  C   -0.000000  -0.000000  -0.000000   0.000000   0.000000   0.000000
[...]
              Bcc     0.0000     0.000     0.000     0.000  0.9354 -0.3535  0.0104
 
              Baa    -0.0000    -0.000    -0.000    -0.000  0.3037  0.8428  0.4443
    41 H(1)   Bbb    -0.0000    -0.000    -0.000    -0.000  0.4649 -0.5382  0.7030
              Bcc     0.0000     0.000     0.000     0.000  0.8316 -0.0070 -0.5553
 
              Baa    -0.0000    -0.000    -0.000    -0.000  0.3384  0.8197 -0.4621
    42 H(1)   Bbb    -0.0000    -0.000    -0.000    -0.000 -0.4896  0.5728  0.6575
              Bcc     0.0000     0.000     0.000     0.000  0.8036  0.0037  0.5951
 
              Baa    -0.0000    -0.000    -0.000    -0.000  0.2504  0.9670 -0.0478
    43 H(1)   Bbb    -0.0000    -0.000    -0.000    -0.000 -0.0096  0.0518  0.9986
              Bcc     0.0000     0.000     0.000     0.000  0.9681 -0.2496  0.0222
 
              Baa    -0.0000    -0.002    -0.001    -0.001 -0.0000  0.9965  0.0841
    44 Co(59) Bbb    -0.0000    -0.001    -0.000    -0.000 -0.0000 -0.0841  0.9965
              Bcc     0.0000     0.004     0.001     0.001  1.0000  0.0000  0.0000
 

 ---------------------------------------------------------------------------------

   1 Symmetry operations used in ECPInt.
 ECPInt:  NShTT=   11781 NPrTT=   71406 LenC2=    9550 LenP2D=   32135.
 LDataN:  DoStor=T MaxTD1= 7 Len=  274
 Calling FoFJK, ICntrl=      2127 FMM=F ISym2X=0 I1Cent= 0 IOpClX= 1 NMat=1 NMatS=1 NMatT=0.
 -------------------------------------------------------------------
 Center     Atomic                   Forces (Hartrees/Bohr)
 Number     Number              X              Y              Z
 -------------------------------------------------------------------
      1        6           0.000001646   -0.018767377   -0.000006165
      2        6           0.043841959    0.020565008    0.000002615
      3        6           0.000807614   -0.001529104    0.000001176
      4        6          -0.000003146    0.005928537   -0.000001027
      5        6          -0.000802322   -0.001529832    0.000000875
      6        6          -0.043849584    0.020568648    0.000002668
      7        1           0.000038251    0.002038536   -0.000000421
      8        1           0.000000279   -0.002578180   -0.000000019
      9        1          -0.000039595    0.002037785   -0.000000449
     10        6          -0.002885512   -0.003253353    0.000000046
     11        6           0.007708973    0.002718563   -0.000013206
     12        6           0.009745084    0.005701255   -0.000000036
     13        6           0.007271292   -0.000514078   -0.000001182
     14        6          -0.001831894    0.003529718    0.000000206
     15        6          -0.010077355    0.004194545    0.000001242
     16        1          -0.000228638    0.000771647   -0.000000029
     17        6           0.000671279   -0.007322736   -0.000000349
     18        1           0.000373280    0.000149563   -0.000000021
     19        1           0.000791877    0.000625199   -0.000000077
     20        1          -0.000234487    0.000016699    0.000000003
     21        6           0.002892000   -0.003263324   -0.000001635
     22        6          -0.007716382    0.002717231   -0.000012180
     23        6          -0.009750637    0.005697559    0.000000423
     24        6          -0.007276659   -0.000502732   -0.000000341
     25        6           0.001839612    0.003530399    0.000000299
     26        6           0.010081369    0.004191563    0.000000558
     27        1           0.000227755    0.000768036   -0.000000107
     28        6          -0.000678568   -0.007320932   -0.000000358
     29        1          -0.000373998    0.000148424   -0.000000126
     30        1          -0.000793110    0.000626737   -0.000000016
     31        1           0.000237443    0.000017127    0.000000003
     32        7          -0.019604662   -0.036535545    0.000004511
     33        7           0.019453537    0.012457840    0.000006356
     34        7           0.019611918   -0.036539777    0.000001336
     35        7          -0.019447882    0.012445164    0.000008482
     36        6           0.000545924   -0.007401281   -0.000002036
     37        1           0.000038245    0.000791028    0.000738904
     38        1           0.000038572    0.000792239   -0.000739257
     39        1           0.000346157    0.001674911    0.000000971
     40        6          -0.000548371   -0.007408397   -0.000001611
     41        1          -0.000038030    0.000792394   -0.000740219
     42        1          -0.000037834    0.000791243    0.000739583
     43        1          -0.000346078    0.001675240    0.000001207
     44       27           0.000000680    0.016503812    0.000009402
 -------------------------------------------------------------------
 Cartesian Forces:  Max     0.043849584 RMS     0.009092542

 GradGradGradGradGradGradGradGradGradGradGradGradGradGradGradGradGradGrad
 Berny optimization.
 Search for a local minimum.
 Step number   1 out of a maximum of    2
 All quantities printed in internal units (Hartrees-Bohrs-Radians)
 Second derivative matrix not updated -- first step.
 ITU=  0
     Eigenvalues ---    0.00056   0.00064   0.00198   0.00247   0.00248
     Eigenvalues ---    0.00391   0.00451   0.00618   0.00637   0.00649
     Eigenvalues ---    0.00672   0.00844   0.00845   0.01328   0.01599
     Eigenvalues ---    0.01831   0.01982   0.02045   0.02547   0.02553
     Eigenvalues ---    0.03058   0.03264   0.04077   0.04176   0.04450
     Eigenvalues ---    0.04516   0.04703   0.05402   0.05528   0.06437
     Eigenvalues ---    0.06443   0.06920   0.06948   0.07013   0.07063
     Eigenvalues ---    0.07064   0.07303   0.07687   0.07754   0.09634
     Eigenvalues ---    0.10199   0.10454   0.10492   0.11818   0.11925
     Eigenvalues ---    0.11988   0.12278   0.12540   0.12801   0.13384
     Eigenvalues ---    0.13396   0.13533   0.13676   0.14835   0.15715
     Eigenvalues ---    0.15905   0.16249   0.19587   0.20265   0.20770
     Eigenvalues ---    0.21434   0.22433   0.24551   0.25981   0.28938
     Eigenvalues ---    0.29773   0.30828   0.30875   0.31280   0.31725
     Eigenvalues ---    0.32961   0.34845   0.36724   0.38467   0.38565
     Eigenvalues ---    0.39023   0.41346   0.42908   0.46492   0.48160
     Eigenvalues ---    0.48857   0.48881   0.49406   0.52432   0.53486
     Eigenvalues ---    0.53814   0.54453   0.56226   0.64330   0.68822
     Eigenvalues ---    0.71817   0.73792   0.74577   0.86210   0.88074
     Eigenvalues ---    0.90751   0.91969   0.94337   0.95242   0.95699
     Eigenvalues ---    0.97579   0.97870   1.03219   1.05394   1.13992
     Eigenvalues ---    1.15792   1.17146   1.18150   1.21227   1.26275
     Eigenvalues ---    1.32143   1.38479   1.38493   1.45902   1.47745
     Eigenvalues ---    1.49500   1.52020   1.53768   1.61794   1.64951
     Eigenvalues ---    1.66444   1.66774   1.76242   1.78707   1.81683
     Eigenvalues ---    1.83821
 Quadratic step=3.344D-01 exceeds max=3.000D-01 adjusted using Lamda=-9.664D-04.
 Angle between NR and scaled steps=   4.97 degrees.
 Angle between quadratic step and forces=  70.16 degrees.
 Linear search not attempted -- first point.
 B after Tr=    -0.000000   -0.001418   -0.000004
         Rot=    1.000000   -0.000000   -0.000000    0.000000 Ang=  -0.00 deg.
 Variable       Old X    -DE/DX   Delta X   Delta X   Delta X     New X
                                 (Linear)    (Quad)   (Total)
    X1        0.00000   0.00000   0.00000   0.00000   0.00000   0.00000
    Y1        1.29938  -0.01877   0.00000  -0.03712  -0.03854   1.26084
    Z1        0.00021  -0.00001   0.00000  -0.00004  -0.00005   0.00017
    X2       -2.33780   0.04384   0.00000   0.06132   0.06132  -2.27648
    Y2        2.55672   0.02057   0.00000   0.00131  -0.00011   2.55661
    Z2        0.00008   0.00000   0.00000   0.00000   0.00000   0.00008
    X3       -2.33886   0.00081   0.00000   0.02606   0.02606  -2.31280
    Y3        5.19375  -0.00153   0.00000   0.00594   0.00452   5.19827
    Z3       -0.00001   0.00000   0.00000   0.00003   0.00003   0.00002
    X4        0.00001  -0.00000   0.00000  -0.00000  -0.00000   0.00000
    Y4        6.43563   0.00593   0.00000   0.03405   0.03263   6.46826
    Z4        0.00003  -0.00000   0.00000   0.00003   0.00003   0.00005
    X5        2.33886  -0.00080   0.00000  -0.02606  -0.02606   2.31280
    Y5        5.19375  -0.00153   0.00000   0.00593   0.00452   5.19827
    Z5        0.00009   0.00000   0.00000   0.00002   0.00002   0.00011
    X6        2.33782  -0.04385   0.00000  -0.06133  -0.06133   2.27649
    Y6        2.55672   0.02057   0.00000   0.00131  -0.00011   2.55661
    Z6        0.00016   0.00000   0.00000  -0.00001  -0.00001   0.00015
    X7       -4.07228   0.00004   0.00000   0.02070   0.02070  -4.05159
    Y7        6.28396   0.00204   0.00000   0.00305   0.00163   6.28558
    Z7       -0.00009  -0.00000   0.00000   0.00004   0.00004  -0.00004
    X8        0.00000   0.00000   0.00000   0.00000   0.00000   0.00000
    Y8        8.49649  -0.00258   0.00000   0.02656   0.02514   8.52163
    Z8       -0.00002  -0.00000   0.00000   0.00003   0.00003   0.00001
    X9        4.07229  -0.00004   0.00000  -0.02070  -0.02070   4.05159
    Y9        6.28396   0.00204   0.00000   0.00304   0.00162   6.28558
    Z9        0.00009  -0.00000   0.00000   0.00002   0.00002   0.00011
   X10        6.91399  -0.00289   0.00000  -0.03395  -0.03395   6.88004
   Y10        1.09402  -0.00325   0.00000  -0.01438  -0.01580   1.07823
   Z10       -0.00004   0.00000   0.00000  -0.00002  -0.00002  -0.00006
   X11        3.56860   0.00771   0.00000  -0.02848  -0.02848   3.54012
   Y11       -1.69444   0.00272   0.00000  -0.00388  -0.00530  -1.69974
   Z11        0.00020  -0.00001   0.00000  -0.00006  -0.00007   0.00013
   X12        7.86426   0.00975   0.00000  -0.02776  -0.02776   7.83650
   Y12       -1.40193   0.00570   0.00000   0.00132  -0.00010  -1.40204
   Z12       -0.00019  -0.00000   0.00000   0.00000  -0.00000  -0.00019
   X13        8.54982   0.00727   0.00000  -0.04319  -0.04319   8.50663
   Y13        3.14635  -0.00051   0.00000  -0.00442  -0.00583   3.14051
   Z13       -0.00010  -0.00000   0.00000  -0.00002  -0.00002  -0.00012
   X14       10.44809  -0.00183   0.00000  -0.03527  -0.03527  10.41282
   Y14       -1.89303   0.00353   0.00000   0.00100  -0.00041  -1.89344
   Z14       -0.00038   0.00000   0.00000   0.00003   0.00002  -0.00037
   X15       11.15315  -0.01008   0.00000  -0.05692  -0.05692  11.09623
   Y15        2.64692   0.00419   0.00000   0.00223   0.00081   2.64773
   Z15       -0.00032   0.00000   0.00000   0.00001   0.00000  -0.00032
   X16        7.86277  -0.00023   0.00000  -0.04918  -0.04918   7.81359
   Y16        5.07159   0.00077   0.00000  -0.00420  -0.00562   5.06597
   Z16        0.00002  -0.00000   0.00000  -0.00004  -0.00004  -0.00001
   X17       12.07878   0.00067   0.00000  -0.04260  -0.04260  12.03619
   Y17        0.18595  -0.00732   0.00000  -0.00336  -0.00478   0.18117
   Z17       -0.00046  -0.00000   0.00000   0.00002   0.00002  -0.00044
   X18       11.16398   0.00037   0.00000  -0.02950  -0.02950  11.13448
   Y18       -3.81553   0.00015   0.00000   0.00315   0.00173  -3.81380
   Z18       -0.00047  -0.00000   0.00000   0.00004   0.00003  -0.00044
   X19       12.46002   0.00079   0.00000  -0.05710  -0.05710  12.40293
   Y19        4.22524   0.00063   0.00000   0.00610   0.00468   4.22992
   Z19       -0.00037  -0.00000   0.00000   0.00000   0.00000  -0.00037
   X20       14.10652  -0.00023   0.00000  -0.04229  -0.04229  14.06423
   Y20       -0.13426   0.00002   0.00000   0.00212   0.00070  -0.13356
   Z20       -0.00061   0.00000   0.00000   0.00004   0.00003  -0.00058
   X21       -6.91399   0.00289   0.00000   0.03396   0.03396  -6.88003
   Y21        1.09402  -0.00326   0.00000  -0.01438  -0.01580   1.07822
   Z21       -0.00006  -0.00000   0.00000  -0.00001  -0.00001  -0.00007
   X22       -3.56858  -0.00772   0.00000   0.02848   0.02848  -3.54010
   Y22       -1.69445   0.00272   0.00000  -0.00387  -0.00529  -1.69974
   Z22        0.00011  -0.00001   0.00000  -0.00005  -0.00005   0.00005
   X23       -7.86424  -0.00975   0.00000   0.02776   0.02776  -7.83649
   Y23       -1.40194   0.00570   0.00000   0.00131  -0.00010  -1.40205
   Z23       -0.00012   0.00000   0.00000   0.00001   0.00000  -0.00012
   X24       -8.54981  -0.00728   0.00000   0.04319   0.04319  -8.50662
   Y24        3.14633  -0.00050   0.00000  -0.00441  -0.00583   3.14050
   Z24       -0.00009  -0.00000   0.00000  -0.00001  -0.00001  -0.00011
   X25      -10.44809   0.00184   0.00000   0.03528   0.03528 -10.41281
   Y25       -1.89304   0.00353   0.00000   0.00100  -0.00041  -1.89346
   Z25       -0.00020   0.00000   0.00000   0.00002   0.00001  -0.00018
   X26      -11.15315   0.01008   0.00000   0.05692   0.05692 -11.09623
   Y26        2.64691   0.00419   0.00000   0.00223   0.00081   2.64772
   Z26       -0.00018   0.00000   0.00000  -0.00000  -0.00000  -0.00019
   X27       -7.86277   0.00023   0.00000   0.04918   0.04918  -7.81359
   Y27        5.07158   0.00077   0.00000  -0.00421  -0.00562   5.06596
   Z27       -0.00004  -0.00000   0.00000  -0.00002  -0.00002  -0.00006
   X28      -12.07877  -0.00068   0.00000   0.04259   0.04259 -12.03618
   Y28        0.18593  -0.00732   0.00000  -0.00336  -0.00478   0.18115
   Z28       -0.00023  -0.00000   0.00000   0.00001   0.00001  -0.00022
   X29      -11.16397  -0.00037   0.00000   0.02951   0.02951 -11.13446
   Y29       -3.81554   0.00015   0.00000   0.00314   0.00172  -3.81382
   Z29       -0.00021  -0.00000   0.00000   0.00002   0.00002  -0.00019
   X30      -12.46002  -0.00079   0.00000   0.05709   0.05709 -12.40293
   Y30        4.22522   0.00063   0.00000   0.00610   0.00469   4.22991
   Z30       -0.00021  -0.00000   0.00000  -0.00001  -0.00001  -0.00021
   X31      -14.10651   0.00024   0.00000   0.04229   0.04229 -14.06422
   Y31       -0.13428   0.00002   0.00000   0.00212   0.00070  -0.13358
   Z31       -0.00028   0.00000   0.00000   0.00001   0.00001  -0.00028
   X32       -4.30632  -0.01960   0.00000   0.02572   0.02572  -4.28060
   Y32        0.86407  -0.03654   0.00000  -0.03828  -0.03969   0.82438
   Z32        0.00002   0.00000   0.00000   0.00000  -0.00000   0.00002
   X33       -5.82373   0.01945   0.00000   0.05231   0.05231  -5.77142
   Y33       -3.01082   0.01246   0.00000   0.01251   0.01109  -2.99973
   Z33       -0.00008   0.00001   0.00000   0.00001   0.00000  -0.00008
   X34        4.30632   0.01961   0.00000  -0.02571  -0.02571   4.28060
   Y34        0.86408  -0.03654   0.00000  -0.03828  -0.03970   0.82438
   Z34        0.00017   0.00000   0.00000  -0.00003  -0.00003   0.00014
   X35        5.82374  -0.01945   0.00000  -0.05231  -0.05231   5.77143
   Y35       -3.01080   0.01245   0.00000   0.01249   0.01108  -2.99973
   Z35       -0.00010   0.00001   0.00000   0.00000  -0.00001  -0.00010
   X36        6.00319   0.00055   0.00000  -0.05580  -0.05580   5.94739
   Y36       -5.70909  -0.00740   0.00000   0.00184   0.00042  -5.70867
   Z36        0.00001  -0.00000   0.00000   0.00001   0.00000   0.00001
   X37        7.00067   0.00004   0.00000  -0.05498  -0.05498   6.94568
   Y37       -6.38695   0.00079   0.00000   0.00636   0.00494  -6.38200
   Z37       -1.68671   0.00074   0.00000   0.00161   0.00160  -1.68510
   X38        6.99987   0.00004   0.00000  -0.05495  -0.05495   6.94492
   Y38       -6.38695   0.00079   0.00000   0.00640   0.00498  -6.38197
   Z38        1.68720  -0.00074   0.00000  -0.00160  -0.00161   1.68559
   X39        4.09861   0.00035   0.00000  -0.06215  -0.06215   4.03645
   Y39       -6.50696   0.00167   0.00000   0.02461   0.02319  -6.48376
   Z39       -0.00046   0.00000   0.00000   0.00004   0.00003  -0.00043
   X40       -6.00317  -0.00055   0.00000   0.05580   0.05580  -5.94737
   Y40       -5.70909  -0.00741   0.00000   0.00184   0.00042  -5.70867
   Z40        0.00008  -0.00000   0.00000   0.00001   0.00000   0.00009
   X41       -6.99974  -0.00004   0.00000   0.05495   0.05495  -6.94479
   Y41       -6.38693   0.00079   0.00000   0.00640   0.00498  -6.38196
   Z41        1.68735  -0.00074   0.00000  -0.00160  -0.00161   1.68574
   X42       -7.00076  -0.00004   0.00000   0.05500   0.05500  -6.94577
   Y42       -6.38698   0.00079   0.00000   0.00636   0.00494  -6.38204
   Z42       -1.68656   0.00074   0.00000   0.00161   0.00160  -1.68495
   X43       -4.09859  -0.00035   0.00000   0.06216   0.06216  -4.03643
   Y43       -6.50696   0.00168   0.00000   0.02462   0.02320  -6.48376
   Z43       -0.00052   0.00000   0.00000   0.00006   0.00005  -0.00047
   X44        0.00000   0.00000   0.00000  -0.00000  -0.00000   0.00000
   Y44       -2.21637   0.01650   0.00000   0.02012   0.01870  -2.19767
   Z44        0.00013   0.00001   0.00000  -0.00004  -0.00005   0.00008
         Item               Value     Threshold  Converged?
 Maximum Force            0.043850     0.000450     NO 
 RMS     Force            0.009093     0.000300     NO 
 Maximum Displacement     0.062156     0.001800     NO 
 RMS     Displacement     0.026110     0.001200     NO 
 Predicted change in Energy=-5.363730D-03
 GradGradGradGradGradGradGradGradGradGradGradGradGradGradGradGradGradGrad

 Unable to Open any file for archive entry.
 1\1\GINC-X11P1N5\Force\UPBE1PBE\GenECP\C22H17Co1N4\MAYUMIAO\17-Jul-202
 4\0\\# pbe1pbe em=gd3bj genecp g09default scf=(xqc,maxcycle=64) force 
 guess=read nosymm\\Title Card\\0,1\C,0.00000135,0.68760288,0.00011159\
 C,-1.23711225,1.35295795,0.00004185\C,-1.23767341,2.74841587,-0.000004
 06\C,0.0000028,3.4055896,0.00001385\C,1.23767385,2.74841593,0.00004715
 \C,1.23711871,1.35295643,0.00008445\H,-2.15496036,3.3253263,-0.0000464
 7\H,0.00000079,4.49614652,-0.00001091\H,2.15496298,3.32532754,0.000048
 89\C,3.65872502,0.57893158,-0.00001958\C,1.8884206,-0.89666121,0.00010
 659\C,4.161586,-0.74187165,-0.00009981\C,4.52436919,1.66497447,-0.0000
 5175\C,5.52889192,-1.00174772,-0.00020357\C,5.9019932,1.40068952,-0.00
 016899\H,4.16079854,2.68376963,0.0000132\C,6.39181733,0.0984007,-0.000
 24093\H,5.90772475,-2.01909105,-0.00024956\H,6.59356124,2.2359011,-0.0
 0019597\H,7.46484645,-0.07104587,-0.00032333\C,-3.65872486,0.57893112,
 -0.00003122\C,-1.88840949,-0.89666268,0.00005662\C,-4.16157832,-0.7418
 7578,-0.00006515\C,-4.5243657,1.66496377,-0.00005007\C,-5.52888897,-1.
 0017559,-0.00010358\C,-5.90199301,1.40068257,-0.000097\H,-4.16079798,2
 .68376577,-0.00002139\C,-6.39180961,0.09839126,-0.00012102\H,-5.907717
 38,-2.01909867,-0.00010974\H,-6.59356,2.23589086,-0.00010878\H,-7.4648
 4327,-0.07105689,-0.00015059\N,-2.2788039,0.45724819,0.00001291\N,-3.0
 817878,-1.59325844,-0.00004133\N,2.27880445,0.45725151,0.00009078\N,3.
 08179178,-1.5932485,-0.00005054\C,3.17675188,-3.02112068,0.00000453\H,
 3.70459469,-3.37982602,-0.89256668\H,3.7041727,-3.37982758,0.89282797\
 H,2.16888985,-3.4433338,-0.00024552\C,-3.17674156,-3.02112055,0.000042
 57\H,-3.70410182,-3.37981982,0.89290772\H,-3.70464502,-3.37984438,-0.8
 9248757\H,-2.16888004,-3.4433355,-0.00027268\Co,0.00000066,-1.17285134
 ,0.00006711\\Version=ES64L-G16RevC.01\HF=-1212.1475057\S2=0.\S2-1=0.\S
 2A=0.\RMSD=5.586e-09\RMSF=9.093e-03\Dipole=0.0000586,-1.4495618,-0.000
 0976\Quadrupole=12.9088273,7.5554786,-20.4643059,-0.0001988,-0.0003424
 ,0.0002453\PG=C01 [X(C22H17Co1N4)]\\@
 The archive entry for this job was punched.


 I FIND THAT THE THREE TRULY GREAT TIMES FOR THINKING THOUGHTS
 ARE WHEN I AM STANDING IN THE SHOWER, SITTING ON THE JOHN, OR WALKING.

                                    -- COLIN FLETCHER
 Job cpu time:       0 days  0 hours 33 minutes 52.7 seconds.
 Elapsed time:       0 days  0 hours  0 minutes 37.1 seconds.
 File lengths (MBytes):  RWF=    184 Int=      0 D2E=      0 Chk=    162 Scr=      1
 Normal termination of Gaussian 16 at Wed Jul 17 20:51:33 2024.
