 Entering Gaussian System, Link 0=g16
 Input=JOBS/11_B.gjf
 Output=JOBS/11_B.log
 Initial command:
 /data/app/gaussian/C01-avx2//g16/l1.exe "/tmp/Gau-2051921.inp" -scrdir="/tmp/"
 Entering Link 1 = /data/app/gaussian/C01-avx2//g16/l1.exe PID=   2051922.
  
 Copyright (c) 1988-2019, Gaussian, Inc.  All Rights Reserved.
  
 This is part of the Gaussian(R) 16 program.  It is based on
 the Gaussian(R) 09 system (copyright 2009, Gaussian, Inc.),
 the Gaussian(R) 03 system (copyright 2003, Gaussian, Inc.),
 the Gaussian(R) 98 system (copyright 1998, Gaussian, Inc.),
 the Gaussian(R) 94 system (copyright 1995, Gaussian, Inc.),
 the Gaussian 92(TM) system (copyright 1992, Gaussian, Inc.),
 the Gaussian 90(TM) system (copyright 1990, Gaussian, Inc.),
 the Gaussian 88(TM) system (copyright 1988, Gaussian, Inc.),
 the Gaussian 86(TM) system (copyright 1986, Carnegie Mellon
 University), and the Gaussian 82(TM) system (copyright 1983,
 Carnegie Mellon University). Gaussian is a federally registered
 trademark of Gaussian, Inc.
  
 This software contains proprietary and confidential information,
 including trade secrets, belonging to Gaussian, Inc.
  
 This software is provided under written license and may be
 used, copied, transmitted, or stored only in accord with that
 written license.
  
 The following legend is applicable only to US Government
 contracts under FAR:
  
                    RESTRICTED RIGHTS LEGEND
  
 Use, reproduction and disclosure by the US Government is
 subject to restrictions as set forth in subparagraphs (a)
 and (c) of the Commercial Computer Software - Restricted
 Rights clause in FAR 52.227-19.
  
 Gaussian, Inc.
 340 Quinnipiac St., Bldg. 40, Wallingford CT 06492
  
  
 ---------------------------------------------------------------
 Warning -- This program may not be used in any manner that
 competes with the business of Gaussian, Inc. or will provide
 assistance to any competitor of Gaussian, Inc.  The licensee
 of this program is prohibited from giving any competitor of
 Gaussian, Inc. access to this program.  By using this program,
 the user acknowledges that Gaussian, Inc. is engaged in the
 business of creating and licensing software in the field of
 computational chemistry and represents and warrants to the
 licensee that it is not a competitor of Gaussian, Inc. and that
 it will not use this program in any manner prohibited above.
 ---------------------------------------------------------------
  

 Cite this work as:
 Gaussian 16, Revision C.01,
 M. J. Frisch, G. W. Trucks, H. B. Schlegel, G. E. Scuseria, 
 M. A. Robb, J. R. Cheeseman, G. Scalmani, V. Barone, 
 G. A. Petersson, H. Nakatsuji, X. Li, M. Caricato, A. V. Marenich, 
 J. Bloino, B. G. Janesko, R. Gomperts, B. Mennucci, H. P. Hratchian, 
 J. V. Ortiz, A. F. Izmaylov, J. L. Sonnenberg, D. Williams-Young, 
 F. Ding, F. Lipparini, F. Egidi, J. Goings, B. Peng, A. Petrone, 
 T. Henderson, D. Ranasinghe, V. G. Zakrzewski, J. Gao, N. Rega, 
 G. Zheng, W. Liang, M. Hada, M. Ehara, K. Toyota, R. Fukuda, 
 J. Hasegawa, M. Ishida, T. Nakajima, Y. Honda, O. Kitao, H. Nakai, 
 T. Vreven, K. Throssell, J. A. Montgomery, Jr., J. E. Peralta, 
 F. Ogliaro, M. J. Bearpark, J. J. Heyd, E. N. Brothers, K. N. Kudin, 
 V. N. Staroverov, T. A. Keith, R. Kobayashi, J. Normand, 
 K. Raghavachari, A. P. Rendell, J. C. Burant, S. S. Iyengar, 
 J. Tomasi, M. Cossi, J. M. Millam, M. Klene, C. Adamo, R. Cammi, 
 J. W. Ochterski, R. L. Martin, K. Morokuma, O. Farkas, 
 J. B. Foresman, and D. J. Fox, Gaussian, Inc., Wallingford CT, 2019.
 
 ******************************************
 Gaussian 16:  ES64L-G16RevC.01  3-Jul-2019
                17-Jul-2024 
 ******************************************
 %chk=b.chk
 %nprocshared=56
 Will use up to   56 processors via shared memory.
 %mem=96gb
 ----------------------------------------------------------------------
 # pbe1pbe em=gd3bj genecp g09default scf=(xqc,maxcycle=64) force guess
 =read nosymm
 ----------------------------------------------------------------------
 1/10=7,30=1,38=1,158=3,167=1/1,3;
 2/12=2,15=1,17=6,18=5,40=1/2;
 3/5=7,11=2,16=1,17=8,25=1,27=10,30=1,71=1,74=-13,75=-4,116=-2,124=41,158=3/1,2,3;
 4/5=1,60=-1/1;
 5/5=2,7=64,8=3,13=1,38=6,87=10/2,8;
 6/7=2,8=2,9=2,10=2,28=1,87=10/1;
 7/29=1,30=1,87=10/1,2,3,16;
 1/10=7,30=1,158=3,167=1/3;
 99//99;
 Using 2006 physical constants.
 ----------
 Title Card
 ----------
 Symbolic Z-matrix:
 Charge =  0 Multiplicity = 3
 6                     0.        0.6876    0.00011 
 6                    -1.23711   1.35296   0.00004 
 6                    -1.23767   2.74842  0. 
 6                     0.        3.40559   0.00001 
 6                     1.23767   2.74842   0.00005 
 6                     1.23712   1.35296   0.00008 
 1                    -2.15496   3.32533  -0.00005 
 1                     0.        4.49615  -0.00001 
 1                     2.15496   3.32533   0.00005 
 6                     3.65873   0.57893  -0.00002 
 6                     1.88842  -0.89666   0.00011 
 6                     4.16159  -0.74187  -0.0001 
 6                     4.52437   1.66497  -0.00005 
 6                     5.52889  -1.00175  -0.0002 
 6                     5.90199   1.40069  -0.00017 
 1                     4.1608    2.68377   0.00001 
 6                     6.39182   0.0984   -0.00024 
 1                     5.90772  -2.01909  -0.00025 
 1                     6.59356   2.2359   -0.0002 
 1                     7.46485  -0.07105  -0.00032 
 6                    -3.65872   0.57893  -0.00003 
 6                    -1.88841  -0.89666   0.00006 
 6                    -4.16158  -0.74188  -0.00007 
 6                    -4.52437   1.66496  -0.00005 
 6                    -5.52889  -1.00176  -0.0001 
 6                    -5.90199   1.40068  -0.0001 
 1                    -4.1608    2.68377  -0.00002 
 6                    -6.39181   0.09839  -0.00012 
 1                    -5.90772  -2.0191   -0.00011 
 1                    -6.59356   2.23589  -0.00011 
 1                    -7.46484  -0.07106  -0.00015 
 7                    -2.2788    0.45725   0.00001 
 7                    -3.08179  -1.59326  -0.00004 
 7                     2.2788    0.45725   0.00009 
 7                     3.08179  -1.59325  -0.00005 
 6                     3.17675  -3.02112   0. 
 1                     3.70459  -3.37983  -0.89257 
 1                     3.70417  -3.37983   0.89283 
 1                     2.16889  -3.44333  -0.00025 
 6                    -3.17674  -3.02112   0.00004 
 1                    -3.7041   -3.37982   0.89291 
 1                    -3.70465  -3.37984  -0.89249 
 1                    -2.16888  -3.44334  -0.00027 
 27                    0.       -1.17285   0.00007 
 

 GradGradGradGradGradGradGradGradGradGradGradGradGradGradGradGradGradGrad
 Berny optimization.
 Initialization pass.
 Trust Radius=3.00D-01 FncErr=1.00D-07 GrdErr=1.00D-07 EigMax=2.50D+02 EigMin=1.00D-04
 Number of steps in this run=      2 maximum allowed number of steps=      2.
 GradGradGradGradGradGradGradGradGradGradGradGradGradGradGradGradGradGrad

                          Input orientation:                          
 ---------------------------------------------------------------------
 Center     Atomic      Atomic             Coordinates (Angstroms)
 Number     Number       Type             X           Y           Z
 ---------------------------------------------------------------------
      1          6           0        0.000001    0.687603    0.000112
      2          6           0       -1.237112    1.352958    0.000042
      3          6           0       -1.237673    2.748416   -0.000004
      4          6           0        0.000003    3.405590    0.000014
      5          6           0        1.237674    2.748416    0.000047
      6          6           0        1.237119    1.352956    0.000084
      7          1           0       -2.154960    3.325326   -0.000046
      8          1           0        0.000001    4.496147   -0.000011
      9          1           0        2.154963    3.325328    0.000049
     10          6           0        3.658725    0.578932   -0.000020
     11          6           0        1.888421   -0.896661    0.000107
     12          6           0        4.161586   -0.741872   -0.000100
     13          6           0        4.524369    1.664974   -0.000052
     14          6           0        5.528892   -1.001748   -0.000204
     15          6           0        5.901993    1.400690   -0.000169
     16          1           0        4.160799    2.683770    0.000013
     17          6           0        6.391817    0.098401   -0.000241
     18          1           0        5.907725   -2.019091   -0.000250
     19          1           0        6.593561    2.235901   -0.000196
     20          1           0        7.464846   -0.071046   -0.000323
     21          6           0       -3.658725    0.578931   -0.000031
     22          6           0       -1.888409   -0.896663    0.000057
     23          6           0       -4.161578   -0.741876   -0.000065
     24          6           0       -4.524366    1.664964   -0.000050
     25          6           0       -5.528889   -1.001756   -0.000104
     26          6           0       -5.901993    1.400683   -0.000097
     27          1           0       -4.160798    2.683766   -0.000021
     28          6           0       -6.391810    0.098391   -0.000121
     29          1           0       -5.907717   -2.019099   -0.000110
     30          1           0       -6.593560    2.235891   -0.000109
     31          1           0       -7.464843   -0.071057   -0.000151
     32          7           0       -2.278804    0.457248    0.000013
     33          7           0       -3.081788   -1.593258   -0.000041
     34          7           0        2.278804    0.457252    0.000091
     35          7           0        3.081792   -1.593249   -0.000051
     36          6           0        3.176752   -3.021121    0.000005
     37          1           0        3.704595   -3.379826   -0.892567
     38          1           0        3.704173   -3.379828    0.892828
     39          1           0        2.168890   -3.443334   -0.000246
     40          6           0       -3.176742   -3.021121    0.000043
     41          1           0       -3.704102   -3.379820    0.892908
     42          1           0       -3.704645   -3.379844   -0.892488
     43          1           0       -2.168880   -3.443336   -0.000273
     44         27           0        0.000001   -1.172851    0.000067
 ---------------------------------------------------------------------
                    Distance matrix (angstroms):
                    1          2          3          4          5
     1  C    0.000000
     2  C    1.404688   0.000000
     3  C    2.403911   1.395458   0.000000
     4  C    2.717987   2.396612   1.401328   0.000000
     5  C    2.403910   2.841104   2.475347   1.401323   0.000000
     6  C    1.404690   2.474231   2.841109   2.396614   1.395460
     7  H    3.406089   2.175473   1.083624   2.156457   3.441336
     8  H    3.808544   3.377881   2.141588   1.090557   2.141587
     9  H    3.406090   3.923827   3.441338   2.156454   1.083626
    10  C    3.660337   4.956646   5.355500   4.623445   3.250869
    11  C    2.464958   3.850940   4.801984   4.698455   3.702710
    12  C    4.400248   5.790877   6.429161   5.875390   4.553171
    13  C    4.628732   5.769924   5.863018   4.847642   3.460666
    14  C    5.781223   7.164039   7.736287   7.070590   5.698972
    15  C    5.944914   7.139265   7.265756   6.233227   4.855125
    16  H    4.614858   5.559541   5.398859   4.222943   2.923839
    17  C    6.418915   7.731396   8.076615   7.196721   5.795496
    18  H    6.498260   7.900596   8.589868   8.020495   6.673717
    19  H    6.772906   7.880294   7.847987   6.696505   5.380353
    20  H    7.503297   8.817702   9.147853   8.234736   6.835718
    21  C    3.660340   2.542307   3.250870   4.623450   5.355500
    22  C    2.464953   2.342004   3.702709   4.698455   4.801978
    23  C    4.400245   3.597337   4.553170   5.875392   6.429157
    24  C    4.628729   3.302027   3.460667   4.847648   5.863017
    25  C    5.781225   4.895306   5.698975   7.070597   7.736289
    26  C    5.944915   4.665125   4.855127   6.233234   7.265757
    27  H    4.614858   3.212318   2.923839   4.222948   5.398859
    28  C    6.418911   5.305171   5.795494   7.196723   8.076611
    29  H    6.498259   5.760670   6.673718   8.020499   8.589867
    30  H    6.772905   5.428729   5.380353   6.696511   7.847987
    31  H    7.503297   6.388462   6.835720   8.234743   9.147854
    32  N    2.290418   1.373833   2.516625   3.726349   4.197031
    33  N    3.834026   3.476064   4.717085   5.872471   6.124368
    34  N    2.290416   3.628217   4.197029   3.726343   2.516622
    35  N    3.834021   5.228103   6.124364   5.872462   4.717078
    36  C    4.883275   6.214078   7.264620   7.168985   6.086672
    37  H    5.573586   6.900468   7.923259   7.782195   6.666169
    38  H    5.573313   6.900190   7.923027   7.782023   6.666037
    39  H    4.665696   5.882624   7.066996   7.184137   6.261384
    40  C    4.883270   4.784843   6.086669   7.168982   7.264614
    41  H    5.573275   5.411324   6.666021   7.781994   7.922981
    42  H    5.573622   5.411538   6.666187   7.782229   7.923302
    43  H    4.665694   4.885962   6.261384   7.184137   7.066993
    44  Co   1.860454   2.812501   4.111955   4.578441   4.111955
                    6          7          8          9         10
     6  C    0.000000
     7  H    3.923830   0.000000
     8  H    3.377885   2.452484   0.000000
     9  H    2.175474   4.309923   2.452484   0.000000
    10  C    2.542300   6.429745   5.360115   3.131133   0.000000
    11  C    2.342002   5.845862   5.713887   4.230394   2.304637
    12  C    3.597334   7.512713   6.689965   4.535267   1.413291
    13  C    3.302025   6.882602   5.337176   2.893244   1.388823
    14  C    4.895299   8.818455   7.797146   5.486982   2.448688
    15  C    4.665119   8.283642   6.664486   4.212418   2.389045
    16  H    3.212315   6.348260   4.538386   2.105938   2.163890
    17  C    5.305170   9.135670   7.758575   5.325786   2.775014
    18  H    5.760665   9.673143   8.794858   6.530393   3.436237
    19  H    5.428726   8.816092   6.970204   4.570340   3.370284
    20  H    6.388456  10.201766   8.751181   6.303191   3.861221
    21  C    4.956652   3.131133   5.360117   6.429748   7.317450
    22  C    3.850937   4.230395   5.713885   5.845859   5.740042
    23  C    5.790877   4.535267   6.689964   7.512712   7.931058
    24  C    5.769926   2.893248   5.337180   6.882604   8.254843
    25  C    7.164044   5.486988   7.797150   8.818460   9.322597
    26  C    7.139271   4.212423   6.664490   8.283646   9.595968
    27  H    5.559547   2.105940   4.538389   6.348263   8.097856
    28  C    7.731396   5.325786   7.758575   9.135669  10.062016
    29  H    7.900597   6.530395   8.794860   9.673144   9.912950
    30  H    7.880298   4.570343   6.970208   8.816095  10.385320
    31  H    8.817707   6.303196   8.751185  10.201769  11.142543
    32  N    3.628223   2.870751   4.637419   5.280546   5.938776
    33  N    5.228110   5.005146   6.824828   7.184431   7.081873
    34  N    1.373825   5.280542   4.637415   2.870748   1.385275
    35  N    3.476053   7.184424   6.824820   5.005138   2.247492
    36  C    4.784844   8.288820   8.160947   6.428177   3.632172
    37  H    5.411515   8.949304   8.749378   6.939539   4.058387
    38  H    5.411339   8.949064   8.749230   6.939468   4.058450
    39  H    4.885959   8.031839   8.230397   6.768676   4.289316
    40  C    6.214074   6.428174   8.160943   8.288816   7.725541
    41  H    6.900142   6.939466   8.749201   8.949013   8.407155
    42  H    6.900516   6.939545   8.749408   8.949355   8.407593
    43  H    5.882622   6.768676   8.230396   8.031838   7.080933
    44  Co   2.812502   4.987731   5.668998   4.987733   4.056477
                   11         12         13         14         15
    11  C    0.000000
    12  C    2.278429   0.000000
    13  C    3.675623   2.434034   0.000000
    14  C    3.641988   1.391783   2.849644   0.000000
    15  C    4.624563   2.760360   1.402745   2.431236   0.000000
    16  H    4.240659   3.425641   1.081724   3.931249   2.162881
    17  C    4.612020   2.383273   2.437523   1.398201   1.391360
    18  H    4.173087   2.163398   3.935227   1.085588   3.419785
    19  H    5.652548   3.844689   2.146512   3.408209   1.084364
    20  H    5.637213   3.370688   3.414700   2.148052   2.146745
    21  C    5.740052   7.931064   8.254848   9.322599   9.595969
    22  C    3.776830   6.051975   6.905484   7.418046   8.122081
    23  C    6.051979   8.323164   9.013246   9.693954  10.289123
    24  C    6.905487   9.013247   9.048735  10.400930  10.429708
    25  C    7.418054   9.693959  10.400935  11.057781  11.680617
    26  C    8.122089  10.289128  10.429711  11.680616  11.803986
    27  H    7.029403   8.999837   8.744716  10.366923  10.144262
    28  C    8.339805  10.586794  11.028016  11.971359  12.362587
    29  H    7.876524  10.149984  11.063491  11.481770  12.294886
    30  H    9.041951  11.159760  11.132578  12.547356  12.523434
    31  H    9.389631  11.645765  12.114249  13.027023  13.447615
    32  N    4.381647   6.551069   6.909542   7.942845   8.235018
    33  N    5.018787   7.293238   8.274642   8.630973   9.469532
    34  N    1.409070   2.232210   2.549736   3.562548   3.744005
    35  N    1.381799   1.375063   3.563292   2.517573   4.113053
    36  C    2.484578   2.482917   4.876019   3.100069   5.194165
    37  H    3.203352   2.822081   5.188316   3.127240   5.336503
    38  H    3.203127   2.822297   5.188447   3.127678   5.336778
    39  H    2.562070   3.356894   5.625220   4.153427   6.115605
    40  C    5.492649   7.684141   9.014799   8.936774  10.098308
    41  H    6.183808   8.344176   9.693042   9.576066  10.766983
    42  H    6.184279   8.344630   9.693468   9.576519  10.767415
    43  H    4.790328   6.882783   8.419882   8.075707   9.412947
    44  Co   1.908510   4.183842   5.340708   5.531538   6.438682
                   16         17         18         19         20
    16  H    0.000000
    17  C    3.414905   0.000000
    18  H    5.016837   2.172123   0.000000
    19  H    2.473645   2.147000   4.309911   0.000000
    20  H    4.301830   1.086326   2.493894   2.465997   0.000000
    21  C    8.097857  10.062023   9.912955  10.385322  11.142545
    22  C    7.029396   8.339803   7.876519   9.041946   9.389624
    23  C    8.999834  10.586795  10.149982  11.159757  11.645762
    24  C    8.744715  11.028018  11.063488  11.132577  12.114245
    25  C   10.366925  11.971365  11.481773  12.547359  13.027025
    26  C   10.144264  12.362593  12.294889  12.523437  13.447616
    27  H    8.321597  10.864704  11.112696  10.763681  11.947577
    28  C   10.864701  12.783627  12.480476  13.160122  13.857692
    29  H   11.112695  12.480479  11.815442  13.205567  13.513711
    30  H   10.763681  13.160125  13.205567  13.187121  14.246429
    31  H   11.947578  13.857697  13.513712  14.246431  14.929690
    32  N    6.813654   8.678044   8.552865   9.048893   9.757962
    33  N    8.411185   9.623456   8.999593  10.405520  10.655920
    34  N    2.915353   4.128638   4.393328   4.666982   5.212881
    35  N    4.411025   3.717250   2.857838   5.195663   4.639857
    36  C    5.789138   4.479739   2.908999   6.269838   5.204872
    37  H    6.145894   4.485028   2.738907   6.377997   5.087594
    38  H    6.145961   4.485429   2.739495   6.378281   5.088067
    39  H    6.442755   5.511533   4.000919   7.199405   6.278494
    40  C    9.294367  10.064230   9.139562  11.094823  11.042932
    41  H    9.971010  10.715564   9.748668  11.763325  11.682947
    42  H    9.971418  10.716009   9.749123  11.763751  11.683392
    43  H    8.809441   9.264418   8.201220  10.441940  10.206911
    44  Co   5.673250   6.517009   5.968025   7.422576   7.545721
                   21         22         23         24         25
    21  C    0.000000
    22  C    2.304646   0.000000
    23  C    1.413291   2.278433   0.000000
    24  C    1.388813   3.675622   2.434028   0.000000
    25  C    2.448691   3.641996   1.391789   2.849642   0.000000
    26  C    2.389043   4.624570   2.760362   1.402748   2.431238
    27  H    2.163887   4.240662   3.425642   1.081730   3.931252
    28  C    2.775008   4.612022   2.383271   2.437518   1.398197
    29  H    3.436237   4.173092   2.163400   3.935223   1.085586
    30  H    3.370278   5.652551   3.844688   2.146514   3.408208
    31  H    3.861220   5.637219   3.370691   3.414700   2.148050
    32  N    1.385276   1.409071   2.232205   2.549730   3.562548
    33  N    2.247502   1.381809   1.375064   3.563291   2.517574
    34  N    5.938776   4.381638   6.551064   6.909536   7.942845
    35  N    7.081873   5.018778   7.293233   8.274635   8.630973
    36  C    7.725550   5.492648   7.684143   9.014799   8.936779
    37  H    8.407547   6.184220   8.344580   9.693414   9.576478
    38  H    8.407213   6.183860   8.344225   9.693090   9.576115
    39  H    7.080940   4.790325   6.882783   8.419880   8.075711
    40  C    3.632173   2.484577   2.482914   4.876010   3.100070
    41  H    4.058461   3.203122   2.822310   5.188453   3.127700
    42  H    4.058385   3.203364   2.822071   5.188302   3.127222
    43  H    4.289320   2.562071   3.356893   5.625214   4.153429
    44  Co   4.056478   1.908500   4.183836   5.340701   5.531536
                   26         27         28         29         30
    26  C    0.000000
    27  H    2.162883   0.000000
    28  C    1.391360   3.414905   0.000000
    29  H    3.419786   5.016838   2.172121   0.000000
    30  H    1.084361   2.473646   2.147000   4.309909   0.000000
    31  H    2.146746   4.301833   1.086330   2.493894   2.465997
    32  N    3.744004   2.915353   4.128631   4.393325   4.666979
    33  N    4.113057   4.411032   3.717247   2.857834   5.195664
    34  N    8.235017   6.813651   8.678037   8.552862   9.048890
    35  N    9.469531   8.411181   9.623449   8.999590  10.405515
    36  C   10.098314   9.294373  10.064230   9.139564  11.094826
    37  H   10.767372   9.971368  10.715962   9.749082  11.763705
    38  H   10.767034   9.971064  10.715607   9.748710  11.763372
    39  H    9.412951   8.809444   9.264415   8.201221  10.441940
    40  C    5.194164   5.789136   4.479734   2.908999   6.269834
    41  H    5.336796   6.145971   4.485446   2.739519   6.378295
    42  H    5.336491   6.145888   4.485008   2.738886   6.377982
    43  H    6.115607   6.442756   5.511530   4.000919   7.199403
    44  Co   6.438680   5.673248   6.517001   5.968020   7.422571
                   31         32         33         34         35
    31  H    0.000000
    32  N    5.212879   0.000000
    33  N    4.639857   2.202126   0.000000
    34  N    9.757960   4.557608   5.739385   0.000000
    35  N   10.655918   5.739383   6.163580   2.202121   0.000000
    36  C   11.042935   6.470096   6.419354   3.592406   1.431026
    37  H   11.683352   7.163860   7.074137   4.189616   2.091967
    38  H   11.682992   7.163538   7.073776   4.189490   2.091998
    39  H   10.206913   5.915786   5.567081   3.902134   2.063057
    40  C    5.204872   3.592400   1.431016   6.470089   6.419350
    41  H    5.088088   4.189490   2.091993   7.163477   7.073723
    42  H    5.087576   4.189613   2.091961   7.163914   7.074185
    43  H    6.278494   3.902132   2.063053   5.915782   5.567080
    44  Co   7.545717   2.801816   3.110332   2.801818   3.110333
                   36         37         38         39         40
    36  C    0.000000
    37  H    1.097256   0.000000
    38  H    1.097259   1.785395   0.000000
    39  H    1.092726   1.777262   1.777275   0.000000
    40  C    6.353493   6.948252   6.947857   5.362279   0.000000
    41  H    6.947812   7.620807   7.408275   5.940858   1.097261
    42  H    6.948298   7.409240   7.620888   5.941257   1.097258
    43  H    5.362280   5.941206   5.940910   4.337770   1.092726
    44  Co   3.675302   4.403584   4.403255   3.139932   3.675295
                   41         42         43         44
    41  H    0.000000
    42  H    1.785395   0.000000
    43  H    1.777276   1.777260   0.000000
    44  Co   4.403209   4.403620   3.139927   0.000000
 Symmetry turned off by external request.
 Stoichiometry    C22H17CoN4(3)
 Framework group  C1[X(C22H17CoN4)]
 Deg. of freedom   126
 Full point group                 C1      NOp   1
 Rotational constants (GHZ):           0.4704503           0.1016113           0.0836517
 General basis read from cards:  (5D, 7F)
 ======================================================================================================
                                       Pseudopotential Parameters
 ======================================================================================================
  Center     Atomic      Valence      Angular      Power
  Number     Number     Electrons     Momentum     of R      Exponent        Coefficient   SO-Coeffient
 ======================================================================================================
    1          6
                                   No pseudopotential on this center.
    2          6
                                   No pseudopotential on this center.
    3          6
                                   No pseudopotential on this center.
    4          6
                                   No pseudopotential on this center.
    5          6
                                   No pseudopotential on this center.
    6          6
                                   No pseudopotential on this center.
    7          1
                                   No pseudopotential on this center.
    8          1
                                   No pseudopotential on this center.
    9          1
                                   No pseudopotential on this center.
   10          6
                                   No pseudopotential on this center.
   11          6
                                   No pseudopotential on this center.
   12          6
                                   No pseudopotential on this center.
   13          6
                                   No pseudopotential on this center.
   14          6
                                   No pseudopotential on this center.
   15          6
                                   No pseudopotential on this center.
   16          1
                                   No pseudopotential on this center.
   17          6
                                   No pseudopotential on this center.
   18          1
                                   No pseudopotential on this center.
   19          1
                                   No pseudopotential on this center.
   20          1
                                   No pseudopotential on this center.
   21          6
                                   No pseudopotential on this center.
   22          6
                                   No pseudopotential on this center.
   23          6
                                   No pseudopotential on this center.
   24          6
                                   No pseudopotential on this center.
   25          6
                                   No pseudopotential on this center.
   26          6
                                   No pseudopotential on this center.
   27          1
                                   No pseudopotential on this center.
   28          6
                                   No pseudopotential on this center.
   29          1
                                   No pseudopotential on this center.
   30          1
                                   No pseudopotential on this center.
   31          1
                                   No pseudopotential on this center.
   32          7
                                   No pseudopotential on this center.
   33          7
                                   No pseudopotential on this center.
   34          7
                                   No pseudopotential on this center.
   35          7
                                   No pseudopotential on this center.
   36          6
                                   No pseudopotential on this center.
   37          1
                                   No pseudopotential on this center.
   38          1
                                   No pseudopotential on this center.
   39          1
                                   No pseudopotential on this center.
   40          6
                                   No pseudopotential on this center.
   41          1
                                   No pseudopotential on this center.
   42          1
                                   No pseudopotential on this center.
   43          1
                                   No pseudopotential on this center.
   44         27           17
                                      F and up 
                                                     2        1.0000000        0.00000000    0.00000000
                                      S - F
                                                     2       23.6600000      283.96056600    0.00000000
                                                     2       10.6100000       47.15684600    0.00000000
                                      P - F
                                                     2       25.0400000      182.21223600    0.00000000
                                                     2       10.4400000       35.23335200    0.00000000
                                      D - F
                                                     2       29.5400000      -26.47533300    0.00000000
                                                     2       10.1800000       -1.82578700    0.00000000
 ======================================================================================================
   441 basis functions,   871 primitive gaussians,   473 cartesian basis functions
    98 alpha electrons       96 beta electrons
       nuclear repulsion energy      2499.9459188885 Hartrees.
 NAtoms=   44 NActive=   44 NUniq=   44 SFac= 1.00D+00 NAtFMM=   60 NAOKFM=F Big=F
 Integral buffers will be    131072 words long.
 Raffenetti 2 integral format.
 Two-electron integral symmetry is turned off.
 Nuclear repulsion after empirical dispersion term =     2499.8866700416 Hartrees.
 One-electron integrals computed using PRISM.
   1 Symmetry operations used in ECPInt.
 ECPInt:  NShTT=   11781 NPrTT=   71406 LenC2=    9550 LenP2D=   32135.
 LDataN:  DoStor=T MaxTD1= 6 Len=  172
 NBasis=   441 RedAO= T EigKep=  3.50D-04  NBF=   441
 NBsUse=   441 1.00D-06 EigRej= -1.00D+00 NBFU=   441
 Initial guess from the checkpoint file:  "b.chk"
 B after Tr=     0.000000    0.000155   -0.000003
         Rot=    1.000000   -0.000001   -0.000000    0.000000 Ang=  -0.00 deg.
 Initial guess <Sx>= 0.0000 <Sy>= 0.0000 <Sz>= 1.0000 <S**2>= 2.1622 S= 1.0531
 Requested convergence on RMS density matrix=1.00D-08 within  64 cycles.
 Requested convergence on MAX density matrix=1.00D-06.
 Requested convergence on             energy=1.00D-06.
 No special actions if energy rises.
 EnCoef did     3 forward-backward iterations
 Restarting incremental Fock formation.
 SCF Done:  E(UPBE1PBE) =  -1212.13569035     A.U. after   32 cycles
            NFock= 32  Conv=0.29D-08     -V/T= 2.0552
 <Sx>= 0.0000 <Sy>= 0.0000 <Sz>= 1.0000 <S**2>= 2.1523 S= 1.0499
 <L.S>=  0.00000000000    
 Annihilation of the first spin contaminant:
 S**2 before annihilation     2.1523,   after     2.0036
 QCSCF skips out because SCF is already converged.

 **********************************************************************

            Population analysis using the SCF Density.

 **********************************************************************

 Alpha  occ. eigenvalues --  -14.45162 -14.45162 -14.44717 -14.44716 -10.27616
 Alpha  occ. eigenvalues --  -10.27615 -10.27288 -10.27287 -10.27263 -10.27262
 Alpha  occ. eigenvalues --  -10.27039 -10.27039 -10.26214 -10.26214 -10.23654
 Alpha  occ. eigenvalues --  -10.23654 -10.23514 -10.23513 -10.23005 -10.23005
 Alpha  occ. eigenvalues --  -10.22901 -10.22901 -10.22499 -10.22222 -10.22219
 Alpha  occ. eigenvalues --  -10.20036  -3.93713  -2.46455  -2.43688  -2.42822
 Alpha  occ. eigenvalues --   -1.06038  -1.05942  -0.96950  -0.96509  -0.87946
 Alpha  occ. eigenvalues --   -0.87545  -0.85504  -0.80239  -0.78900  -0.77615
 Alpha  occ. eigenvalues --   -0.77517  -0.75615  -0.74980  -0.72996  -0.72595
 Alpha  occ. eigenvalues --   -0.66765  -0.65307  -0.64375  -0.63863  -0.62842
 Alpha  occ. eigenvalues --   -0.61313  -0.58769  -0.57806  -0.56345  -0.53891
 Alpha  occ. eigenvalues --   -0.53061  -0.52025  -0.49789  -0.49700  -0.49241
 Alpha  occ. eigenvalues --   -0.48314  -0.47597  -0.47206  -0.46877  -0.45808
 Alpha  occ. eigenvalues --   -0.45707  -0.45184  -0.44863  -0.44751  -0.44134
 Alpha  occ. eigenvalues --   -0.42434  -0.42025  -0.41433  -0.38873  -0.38780
 Alpha  occ. eigenvalues --   -0.38621  -0.38170  -0.37312  -0.37263  -0.36807
 Alpha  occ. eigenvalues --   -0.36256  -0.34882  -0.34596  -0.33854  -0.32173
 Alpha  occ. eigenvalues --   -0.31803  -0.30274  -0.29827  -0.27218  -0.27019
 Alpha  occ. eigenvalues --   -0.26538  -0.26002  -0.24529  -0.23827  -0.22840
 Alpha  occ. eigenvalues --   -0.20728  -0.20551  -0.10132
 Alpha virt. eigenvalues --   -0.05817  -0.02421  -0.00117   0.00238   0.00319
 Alpha virt. eigenvalues --    0.02329   0.02931   0.03854   0.04458   0.05602
 Alpha virt. eigenvalues --    0.06393   0.07980   0.08022   0.09862   0.10300
 Alpha virt. eigenvalues --    0.12518   0.12955   0.13858   0.13862   0.15257
 Alpha virt. eigenvalues --    0.15297   0.15395   0.15945   0.16331   0.16522
 Alpha virt. eigenvalues --    0.17002   0.17749   0.17964   0.18172   0.18321
 Alpha virt. eigenvalues --    0.19365   0.19789   0.19952   0.20204   0.20998
 Alpha virt. eigenvalues --    0.22007   0.22998   0.23324   0.24400   0.25833
 Alpha virt. eigenvalues --    0.25939   0.26186   0.26289   0.27518   0.27850
 Alpha virt. eigenvalues --    0.27999   0.28860   0.30173   0.30990   0.31489
 Alpha virt. eigenvalues --    0.32775   0.33355   0.34223   0.34815   0.36614
 Alpha virt. eigenvalues --    0.37575   0.37828   0.39475   0.39806   0.41289
 Alpha virt. eigenvalues --    0.42057   0.44618   0.45294   0.46478   0.46752
 Alpha virt. eigenvalues --    0.47903   0.50619   0.50642   0.51721   0.52507
 Alpha virt. eigenvalues --    0.53935   0.54141   0.56300   0.56453   0.56467
 Alpha virt. eigenvalues --    0.56489   0.57354   0.57940   0.58542   0.58721
 Alpha virt. eigenvalues --    0.58759   0.59752   0.60512   0.61432   0.61570
 Alpha virt. eigenvalues --    0.61643   0.62806   0.62964   0.63086   0.63425
 Alpha virt. eigenvalues --    0.63586   0.63817   0.63980   0.64027   0.64591
 Alpha virt. eigenvalues --    0.65147   0.66051   0.66138   0.66934   0.67384
 Alpha virt. eigenvalues --    0.67413   0.68038   0.68642   0.71048   0.71955
 Alpha virt. eigenvalues --    0.71984   0.73836   0.75619   0.76226   0.76802
 Alpha virt. eigenvalues --    0.77248   0.78186   0.80085   0.80351   0.81369
 Alpha virt. eigenvalues --    0.81674   0.82474   0.83637   0.83852   0.84069
 Alpha virt. eigenvalues --    0.84644   0.85176   0.85793   0.86939   0.87268
 Alpha virt. eigenvalues --    0.87527   0.87965   0.89703   0.90742   0.90925
 Alpha virt. eigenvalues --    0.91123   0.91615   0.91646   0.93045   0.93452
 Alpha virt. eigenvalues --    0.93553   0.94147   0.95398   0.95631   0.96224
 Alpha virt. eigenvalues --    0.97356   0.97670   0.98110   0.98297   0.98525
 Alpha virt. eigenvalues --    1.00201   1.00330   1.01602   1.02032   1.02870
 Alpha virt. eigenvalues --    1.03968   1.04243   1.06193   1.07235   1.07434
 Alpha virt. eigenvalues --    1.08726   1.09190   1.09759   1.10828   1.14120
 Alpha virt. eigenvalues --    1.15252   1.16327   1.16807   1.18186   1.18673
 Alpha virt. eigenvalues --    1.19103   1.20808   1.23781   1.23952   1.24743
 Alpha virt. eigenvalues --    1.24947   1.26401   1.27169   1.28527   1.29133
 Alpha virt. eigenvalues --    1.30100   1.30300   1.31068   1.33356   1.33697
 Alpha virt. eigenvalues --    1.35200   1.36509   1.36687   1.38211   1.38887
 Alpha virt. eigenvalues --    1.40713   1.40934   1.42370   1.42406   1.45063
 Alpha virt. eigenvalues --    1.45391   1.45756   1.46674   1.47543   1.48329
 Alpha virt. eigenvalues --    1.49382   1.49513   1.49988   1.50389   1.50405
 Alpha virt. eigenvalues --    1.51437   1.52734   1.55232   1.57901   1.57980
 Alpha virt. eigenvalues --    1.60121   1.60318   1.64232   1.65218   1.66433
 Alpha virt. eigenvalues --    1.70300   1.71116   1.73636   1.75027   1.77421
 Alpha virt. eigenvalues --    1.79117   1.80069   1.80503   1.82744   1.83111
 Alpha virt. eigenvalues --    1.84894   1.86632   1.87176   1.87315   1.87737
 Alpha virt. eigenvalues --    1.88962   1.90195   1.91441   1.92525   1.93906
 Alpha virt. eigenvalues --    1.95209   1.95706   1.96780   1.97345   1.97885
 Alpha virt. eigenvalues --    1.98084   1.99076   1.99179   1.99898   1.99924
 Alpha virt. eigenvalues --    2.01160   2.01452   2.02275   2.03203   2.05383
 Alpha virt. eigenvalues --    2.07353   2.07871   2.10047   2.12456   2.13078
 Alpha virt. eigenvalues --    2.13629   2.14569   2.15791   2.16016   2.16341
 Alpha virt. eigenvalues --    2.17383   2.17548   2.19057   2.19240   2.20473
 Alpha virt. eigenvalues --    2.20947   2.21478   2.22877   2.24269   2.24418
 Alpha virt. eigenvalues --    2.24556   2.26779   2.26920   2.27563   2.27786
 Alpha virt. eigenvalues --    2.27880   2.27945   2.28452   2.29212   2.32718
 Alpha virt. eigenvalues --    2.35798   2.36898   2.40241   2.40604   2.40767
 Alpha virt. eigenvalues --    2.41934   2.43215   2.46134   2.46910   2.47083
 Alpha virt. eigenvalues --    2.51490   2.52727   2.57095   2.58119   2.58427
 Alpha virt. eigenvalues --    2.58964   2.59255   2.61029   2.63273   2.63475
 Alpha virt. eigenvalues --    2.65438   2.66860   2.67706   2.68903   2.70513
 Alpha virt. eigenvalues --    2.71736   2.72209   2.73924   2.75656   2.76171
 Alpha virt. eigenvalues --    2.76537   2.76679   2.78489   2.78710   2.83120
 Alpha virt. eigenvalues --    2.87051   2.87270   2.88249   2.89464   2.93271
 Alpha virt. eigenvalues --    2.93359   2.96519   2.97484   2.98686   3.02311
 Alpha virt. eigenvalues --    3.06128   3.07727   3.16581   3.19478   3.20087
 Alpha virt. eigenvalues --    3.27377   3.40393   3.43746   3.47571   3.50156
 Alpha virt. eigenvalues --    3.51904   3.59036   5.55212   5.56249   5.57637
 Alpha virt. eigenvalues --    5.60282   5.61087   5.62154   5.64037  45.69733
 Alpha virt. eigenvalues --   45.92003  45.95230  63.00654
  Beta  occ. eigenvalues --  -14.45024 -14.45024 -14.44688 -14.44687 -10.27389
  Beta  occ. eigenvalues --  -10.27388 -10.27297 -10.27296 -10.27266 -10.27266
  Beta  occ. eigenvalues --  -10.27075 -10.27075 -10.26061 -10.26061 -10.23596
  Beta  occ. eigenvalues --  -10.23596 -10.23489 -10.23489 -10.23010 -10.23009
  Beta  occ. eigenvalues --  -10.22869 -10.22869 -10.22361 -10.22328 -10.22294
  Beta  occ. eigenvalues --  -10.20349  -3.87117  -2.38758  -2.38114  -2.34835
  Beta  occ. eigenvalues --   -1.05820  -1.05724  -0.96734  -0.96280  -0.87888
  Beta  occ. eigenvalues --   -0.87469  -0.85465  -0.80138  -0.78843  -0.77552
  Beta  occ. eigenvalues --   -0.77442  -0.75455  -0.74771  -0.72994  -0.72631
  Beta  occ. eigenvalues --   -0.66788  -0.65041  -0.64129  -0.63858  -0.62768
  Beta  occ. eigenvalues --   -0.61212  -0.58728  -0.57751  -0.56306  -0.53837
  Beta  occ. eigenvalues --   -0.53024  -0.51951  -0.49309  -0.49239  -0.49233
  Beta  occ. eigenvalues --   -0.48286  -0.47561  -0.47181  -0.46789  -0.45767
  Beta  occ. eigenvalues --   -0.45693  -0.45133  -0.44733  -0.44447  -0.43805
  Beta  occ. eigenvalues --   -0.42438  -0.41994  -0.41427  -0.38785  -0.38613
  Beta  occ. eigenvalues --   -0.38439  -0.37448  -0.37245  -0.36750  -0.36372
  Beta  occ. eigenvalues --   -0.36193  -0.34886  -0.34029  -0.33188  -0.31456
  Beta  occ. eigenvalues --   -0.30194  -0.29666  -0.26323  -0.25997  -0.25154
  Beta  occ. eigenvalues --   -0.24652  -0.23822  -0.21994  -0.20771  -0.20510
  Beta  occ. eigenvalues --   -0.19881
  Beta virt. eigenvalues --   -0.04772  -0.04222  -0.01374  -0.00434   0.00064
  Beta virt. eigenvalues --    0.01237   0.01699   0.02482   0.03718   0.05643
  Beta virt. eigenvalues --    0.05971   0.06057   0.08039   0.09180   0.09268
  Beta virt. eigenvalues --    0.10327   0.10755   0.12626   0.13043   0.13990
  Beta virt. eigenvalues --    0.14127   0.15430   0.15655   0.15998   0.16053
  Beta virt. eigenvalues --    0.16667   0.16997   0.17055   0.17827   0.18089
  Beta virt. eigenvalues --    0.18689   0.19035   0.19516   0.20024   0.20468
  Beta virt. eigenvalues --    0.21325   0.22166   0.23142   0.23158   0.23451
  Beta virt. eigenvalues --    0.24468   0.25991   0.26019   0.26179   0.27563
  Beta virt. eigenvalues --    0.27622   0.27926   0.29286   0.29335   0.30569
  Beta virt. eigenvalues --    0.31310   0.31703   0.32910   0.33595   0.34535
  Beta virt. eigenvalues --    0.34870   0.36785   0.37767   0.38111   0.39681
  Beta virt. eigenvalues --    0.39884   0.41306   0.42584   0.44846   0.45693
  Beta virt. eigenvalues --    0.46834   0.47161   0.48230   0.50779   0.50982
  Beta virt. eigenvalues --    0.51784   0.52627   0.54032   0.54274   0.56345
  Beta virt. eigenvalues --    0.56498   0.56595   0.56716   0.57429   0.58122
  Beta virt. eigenvalues --    0.58674   0.58802   0.59012   0.59816   0.60592
  Beta virt. eigenvalues --    0.61442   0.61783   0.61830   0.62668   0.63035
  Beta virt. eigenvalues --    0.63240   0.63481   0.63754   0.63863   0.64053
  Beta virt. eigenvalues --    0.64073   0.64634   0.65114   0.66210   0.66228
  Beta virt. eigenvalues --    0.67416   0.67605   0.67765   0.68105   0.68849
  Beta virt. eigenvalues --    0.71041   0.72138   0.72344   0.74248   0.75712
  Beta virt. eigenvalues --    0.76399   0.76901   0.77523   0.78706   0.80496
  Beta virt. eigenvalues --    0.80590   0.81560   0.81908   0.82657   0.83874
  Beta virt. eigenvalues --    0.84199   0.84248   0.84712   0.85432   0.85969
  Beta virt. eigenvalues --    0.87285   0.87375   0.87543   0.87994   0.89762
  Beta virt. eigenvalues --    0.90981   0.91025   0.91249   0.91744   0.91813
  Beta virt. eigenvalues --    0.93102   0.93473   0.94211   0.94425   0.95702
  Beta virt. eigenvalues --    0.96530   0.96742   0.97377   0.97712   0.98359
  Beta virt. eigenvalues --    0.98525   0.98551   1.00319   1.00341   1.01719
  Beta virt. eigenvalues --    1.02095   1.02924   1.04077   1.04289   1.06273
  Beta virt. eigenvalues --    1.07315   1.08749   1.09285   1.09791   1.11119
  Beta virt. eigenvalues --    1.14223   1.15074   1.15357   1.16383   1.16836
  Beta virt. eigenvalues --    1.18252   1.18710   1.19147   1.20921   1.23941
  Beta virt. eigenvalues --    1.24174   1.24808   1.25004   1.26606   1.27410
  Beta virt. eigenvalues --    1.28878   1.29364   1.30299   1.30569   1.31300
  Beta virt. eigenvalues --    1.33730   1.34000   1.35628   1.36800   1.36982
  Beta virt. eigenvalues --    1.38574   1.39075   1.40948   1.41200   1.42481
  Beta virt. eigenvalues --    1.42894   1.45145   1.45491   1.45898   1.46832
  Beta virt. eigenvalues --    1.47636   1.48428   1.49559   1.49580   1.50258
  Beta virt. eigenvalues --    1.50515   1.50550   1.51749   1.53133   1.56356
  Beta virt. eigenvalues --    1.57973   1.58322   1.60439   1.60954   1.65018
  Beta virt. eigenvalues --    1.65652   1.66719   1.70629   1.71390   1.73804
  Beta virt. eigenvalues --    1.75158   1.77463   1.79453   1.80286   1.80696
  Beta virt. eigenvalues --    1.82906   1.83189   1.84981   1.86750   1.87239
  Beta virt. eigenvalues --    1.87410   1.87868   1.89138   1.90402   1.91510
  Beta virt. eigenvalues --    1.92587   1.93957   1.95260   1.95755   1.96881
  Beta virt. eigenvalues --    1.97442   1.98042   1.98235   1.99143   1.99370
  Beta virt. eigenvalues --    2.00008   2.00164   2.01200   2.01499   2.02338
  Beta virt. eigenvalues --    2.03396   2.05571   2.07446   2.07963   2.10289
  Beta virt. eigenvalues --    2.12809   2.13255   2.13763   2.14871   2.15858
  Beta virt. eigenvalues --    2.16122   2.16437   2.17486   2.17705   2.19174
  Beta virt. eigenvalues --    2.19593   2.20582   2.21064   2.21592   2.23091
  Beta virt. eigenvalues --    2.24562   2.24750   2.24797   2.27034   2.27130
  Beta virt. eigenvalues --    2.27726   2.27923   2.28077   2.28078   2.28502
  Beta virt. eigenvalues --    2.29434   2.32838   2.36293   2.37176   2.40366
  Beta virt. eigenvalues --    2.40774   2.40936   2.43647   2.44689   2.46956
  Beta virt. eigenvalues --    2.47633   2.48866   2.51594   2.52852   2.57359
  Beta virt. eigenvalues --    2.58271   2.58761   2.59318   2.59359   2.61098
  Beta virt. eigenvalues --    2.63409   2.63735   2.65724   2.66983   2.67803
  Beta virt. eigenvalues --    2.69044   2.70814   2.71952   2.72398   2.74068
  Beta virt. eigenvalues --    2.75835   2.76305   2.76631   2.76904   2.78692
  Beta virt. eigenvalues --    2.78785   2.83260   2.87143   2.87682   2.89025
  Beta virt. eigenvalues --    2.89657   2.93571   2.94723   2.96697   2.97645
  Beta virt. eigenvalues --    2.99482   3.02850   3.06309   3.08144   3.16607
  Beta virt. eigenvalues --    3.19784   3.20469   3.27313   3.41063   3.44189
  Beta virt. eigenvalues --    3.47596   3.50131   3.52373   3.61120   5.61125
  Beta virt. eigenvalues --    5.62953   5.62958   5.64290   5.64505   5.67158
  Beta virt. eigenvalues --    5.68997  45.79869  46.00156  46.00739  63.06489
          Condensed to atoms (all electrons):
               1          2          3          4          5          6
     1  C    5.248790   0.490473  -0.072554  -0.045715  -0.072554   0.490471
     2  C    0.490473   4.616454   0.537827  -0.002852  -0.039082  -0.014750
     3  C   -0.072554   0.537827   5.030146   0.521124  -0.041764  -0.039081
     4  C   -0.045715  -0.002852   0.521124   4.910229   0.521126  -0.002852
     5  C   -0.072554  -0.039082  -0.041764   0.521126   5.030143   0.537826
     6  C    0.490471  -0.014750  -0.039081  -0.002852   0.537826   4.616458
     7  H    0.004860  -0.037602   0.350658  -0.039216   0.004111   0.000456
     8  H    0.001193   0.002455  -0.035408   0.365373  -0.035408   0.002455
     9  H    0.004860   0.000456   0.004111  -0.039216   0.350658  -0.037602
    10  C    0.007742  -0.000005   0.000001   0.000128  -0.006408  -0.045680
    11  C    0.016524   0.003173  -0.000106   0.000045   0.003131  -0.072134
    12  C   -0.000858  -0.000000   0.000000   0.000000   0.000140   0.007701
    13  C    0.000165   0.000002  -0.000002   0.000070   0.001786  -0.005022
    14  C   -0.000000  -0.000000   0.000000  -0.000000   0.000002  -0.000030
    15  C    0.000002  -0.000000   0.000000  -0.000001   0.000079   0.000073
    16  H   -0.000036   0.000001   0.000001   0.000123  -0.000022   0.000603
    17  C    0.000000   0.000000  -0.000000   0.000000  -0.000001  -0.000004
    18  H   -0.000000   0.000000   0.000000   0.000000  -0.000000   0.000003
    19  H   -0.000000   0.000000  -0.000000   0.000000   0.000002  -0.000003
    20  H   -0.000000  -0.000000   0.000000  -0.000000  -0.000000  -0.000000
    21  C    0.007742  -0.045679  -0.006408   0.000128   0.000001  -0.000005
    22  C    0.016526  -0.072134   0.003131   0.000045  -0.000106   0.003173
    23  C   -0.000858   0.007701   0.000140   0.000000   0.000000  -0.000000
    24  C    0.000165  -0.005022   0.001786   0.000070  -0.000002   0.000002
    25  C   -0.000000  -0.000030   0.000002  -0.000000   0.000000  -0.000000
    26  C    0.000002   0.000073   0.000079  -0.000001   0.000000  -0.000000
    27  H   -0.000036   0.000603  -0.000022   0.000123   0.000001   0.000001
    28  C    0.000000  -0.000004  -0.000001   0.000000  -0.000000   0.000000
    29  H   -0.000000   0.000003  -0.000000   0.000000   0.000000   0.000000
    30  H   -0.000000  -0.000003   0.000002   0.000000  -0.000000   0.000000
    31  H   -0.000000  -0.000000  -0.000000  -0.000000   0.000000  -0.000000
    32  N   -0.034624   0.264132  -0.066177   0.004189   0.000684   0.006620
    33  N    0.001305   0.006493  -0.000162   0.000001   0.000000  -0.000045
    34  N   -0.034623   0.006620   0.000684   0.004190  -0.066177   0.264133
    35  N    0.001305  -0.000045   0.000000   0.000001  -0.000162   0.006493
    36  C   -0.000017   0.000000  -0.000000  -0.000000   0.000002  -0.000058
    37  H   -0.000000  -0.000000   0.000000   0.000000  -0.000000   0.000004
    38  H   -0.000000  -0.000000   0.000000   0.000000  -0.000000   0.000004
    39  H   -0.000022   0.000001   0.000000  -0.000000   0.000000  -0.000014
    40  C   -0.000017  -0.000058   0.000002  -0.000000  -0.000000   0.000000
    41  H   -0.000000   0.000004  -0.000000   0.000000   0.000000  -0.000000
    42  H   -0.000000   0.000004  -0.000000   0.000000   0.000000  -0.000000
    43  H   -0.000022  -0.000014   0.000000  -0.000000   0.000000   0.000001
    44  Co   0.269552  -0.070230   0.003248   0.002762   0.003248  -0.070231
               7          8          9         10         11         12
     1  C    0.004860   0.001193   0.004860   0.007742   0.016524  -0.000858
     2  C   -0.037602   0.002455   0.000456  -0.000005   0.003173  -0.000000
     3  C    0.350658  -0.035408   0.004111   0.000001  -0.000106   0.000000
     4  C   -0.039216   0.365373  -0.039216   0.000128   0.000045   0.000000
     5  C    0.004111  -0.035408   0.350658  -0.006408   0.003131   0.000140
     6  C    0.000456   0.002455  -0.037602  -0.045680  -0.072134   0.007701
     7  H    0.547889  -0.004316  -0.000114  -0.000000  -0.000000   0.000000
     8  H   -0.004316   0.543306  -0.004316  -0.000002   0.000001  -0.000000
     9  H   -0.000114  -0.004316   0.547890   0.000364  -0.000158  -0.000033
    10  C   -0.000000  -0.000002   0.000364   4.644263  -0.072222   0.515215
    11  C   -0.000000   0.000001  -0.000158  -0.072222   4.829500  -0.057093
    12  C    0.000000  -0.000000  -0.000033   0.515215  -0.057093   4.654434
    13  C   -0.000000   0.000003   0.000101   0.535883   0.004883  -0.056055
    14  C   -0.000000   0.000000   0.000000  -0.048554   0.005742   0.532628
    15  C   -0.000000   0.000000   0.000126  -0.006772  -0.000077  -0.037849
    16  H   -0.000000  -0.000011   0.006207  -0.034814  -0.000158   0.003736
    17  C    0.000000  -0.000000   0.000001  -0.039421  -0.000079  -0.007885
    18  H    0.000000  -0.000000  -0.000000   0.003879  -0.000217  -0.038414
    19  H    0.000000   0.000000  -0.000009   0.002023   0.000003   0.000928
    20  H   -0.000000  -0.000000   0.000000   0.000902   0.000003   0.002281
    21  C    0.000364  -0.000002  -0.000000  -0.000000  -0.000009   0.000000
    22  C   -0.000158   0.000001  -0.000000  -0.000009  -0.017362  -0.000003
    23  C   -0.000033  -0.000000   0.000000   0.000000  -0.000003  -0.000000
    24  C    0.000101   0.000003  -0.000000   0.000000   0.000000  -0.000000
    25  C    0.000000   0.000000  -0.000000  -0.000000   0.000000   0.000000
    26  C    0.000126   0.000000  -0.000000  -0.000000  -0.000000   0.000000
    27  H    0.006207  -0.000011  -0.000000   0.000000   0.000000  -0.000000
    28  C    0.000001  -0.000000   0.000000   0.000000  -0.000000  -0.000000
    29  H   -0.000000  -0.000000   0.000000   0.000000   0.000000  -0.000000
    30  H   -0.000009   0.000000   0.000000   0.000000   0.000000   0.000000
    31  H    0.000000  -0.000000  -0.000000   0.000000   0.000000   0.000000
    32  N   -0.004499  -0.000103   0.000006   0.000000   0.000360   0.000000
    33  N    0.000002  -0.000000  -0.000000  -0.000000   0.000025   0.000000
    34  N    0.000006  -0.000103  -0.004499   0.263797   0.350699  -0.040266
    35  N   -0.000000  -0.000000   0.000002  -0.044994   0.313318   0.275051
    36  C   -0.000000   0.000000  -0.000000   0.005906  -0.042660  -0.048336
    37  H    0.000000  -0.000000  -0.000000  -0.000141   0.000679  -0.001315
    38  H    0.000000  -0.000000  -0.000000  -0.000141   0.000675  -0.001311
    39  H    0.000000   0.000000   0.000000   0.000016  -0.000392   0.002629
    40  C   -0.000000   0.000000  -0.000000   0.000000   0.000018   0.000000
    41  H   -0.000000  -0.000000   0.000000  -0.000000  -0.000000  -0.000000
    42  H   -0.000000  -0.000000   0.000000  -0.000000  -0.000000  -0.000000
    43  H    0.000000   0.000000   0.000000   0.000000  -0.000001  -0.000000
    44  Co  -0.000492   0.000180  -0.000492   0.007733   0.366791   0.004872
              13         14         15         16         17         18
     1  C    0.000165  -0.000000   0.000002  -0.000036   0.000000  -0.000000
     2  C    0.000002  -0.000000  -0.000000   0.000001   0.000000   0.000000
     3  C   -0.000002   0.000000   0.000000   0.000001  -0.000000   0.000000
     4  C    0.000070  -0.000000  -0.000001   0.000123   0.000000   0.000000
     5  C    0.001786   0.000002   0.000079  -0.000022  -0.000001  -0.000000
     6  C   -0.005022  -0.000030   0.000073   0.000603  -0.000004   0.000003
     7  H   -0.000000  -0.000000  -0.000000  -0.000000   0.000000   0.000000
     8  H    0.000003   0.000000   0.000000  -0.000011  -0.000000  -0.000000
     9  H    0.000101   0.000000   0.000126   0.006207   0.000001  -0.000000
    10  C    0.535883  -0.048554  -0.006772  -0.034814  -0.039421   0.003879
    11  C    0.004883   0.005742  -0.000077  -0.000158  -0.000079  -0.000217
    12  C   -0.056055   0.532628  -0.037849   0.003736  -0.007885  -0.038414
    13  C    5.023695  -0.043778   0.511286   0.356035  -0.035801   0.000272
    14  C   -0.043778   5.031059  -0.038803   0.000451   0.517993   0.362407
    15  C    0.511286  -0.038803   4.899114  -0.036258   0.556526   0.003936
    16  H    0.356035   0.000451  -0.036258   0.519720   0.003747   0.000014
    17  C   -0.035801   0.517993   0.556526   0.003747   4.888543  -0.035823
    18  H    0.000272   0.362407   0.003936   0.000014  -0.035823   0.537367
    19  H   -0.036343   0.004045   0.369003  -0.004126  -0.036148  -0.000149
    20  H    0.003995  -0.037083  -0.036168  -0.000149   0.368184  -0.004260
    21  C    0.000000  -0.000000  -0.000000   0.000000   0.000000   0.000000
    22  C    0.000000   0.000000  -0.000000   0.000000  -0.000000   0.000000
    23  C   -0.000000   0.000000   0.000000  -0.000000  -0.000000  -0.000000
    24  C    0.000000   0.000000  -0.000000   0.000000   0.000000   0.000000
    25  C    0.000000  -0.000000   0.000000  -0.000000  -0.000000   0.000000
    26  C   -0.000000   0.000000  -0.000000   0.000000   0.000000   0.000000
    27  H    0.000000  -0.000000   0.000000   0.000000   0.000000  -0.000000
    28  C    0.000000  -0.000000   0.000000   0.000000   0.000000   0.000000
    29  H    0.000000   0.000000   0.000000  -0.000000   0.000000  -0.000000
    30  H   -0.000000  -0.000000   0.000000  -0.000000   0.000000   0.000000
    31  H   -0.000000   0.000000   0.000000  -0.000000   0.000000   0.000000
    32  N   -0.000000   0.000000   0.000000   0.000000   0.000000  -0.000000
    33  N    0.000000  -0.000000   0.000000   0.000000   0.000000  -0.000000
    34  N   -0.076779   0.008922   0.005125  -0.004811  -0.000187  -0.000090
    35  N    0.009290  -0.083799  -0.000128  -0.000099   0.005405  -0.007143
    36  C   -0.000119  -0.002963   0.000009   0.000003  -0.000115   0.004125
    37  H   -0.000009   0.002794  -0.000002  -0.000000  -0.000006   0.000533
    38  H   -0.000009   0.002792  -0.000002  -0.000000  -0.000006   0.000532
    39  H    0.000006   0.000029  -0.000000  -0.000000   0.000001  -0.000033
    40  C    0.000000   0.000000  -0.000000   0.000000   0.000000  -0.000000
    41  H    0.000000   0.000000  -0.000000   0.000000  -0.000000  -0.000000
    42  H    0.000000   0.000000  -0.000000   0.000000  -0.000000  -0.000000
    43  H    0.000000   0.000000  -0.000000   0.000000  -0.000000   0.000000
    44  Co  -0.000538  -0.000455  -0.000007   0.000058   0.000000   0.000019
              19         20         21         22         23         24
     1  C   -0.000000  -0.000000   0.007742   0.016526  -0.000858   0.000165
     2  C    0.000000  -0.000000  -0.045679  -0.072134   0.007701  -0.005022
     3  C   -0.000000   0.000000  -0.006408   0.003131   0.000140   0.001786
     4  C    0.000000  -0.000000   0.000128   0.000045   0.000000   0.000070
     5  C    0.000002  -0.000000   0.000001  -0.000106   0.000000  -0.000002
     6  C   -0.000003  -0.000000  -0.000005   0.003173  -0.000000   0.000002
     7  H    0.000000  -0.000000   0.000364  -0.000158  -0.000033   0.000101
     8  H    0.000000  -0.000000  -0.000002   0.000001  -0.000000   0.000003
     9  H   -0.000009   0.000000  -0.000000  -0.000000   0.000000  -0.000000
    10  C    0.002023   0.000902  -0.000000  -0.000009   0.000000   0.000000
    11  C    0.000003   0.000003  -0.000009  -0.017362  -0.000003   0.000000
    12  C    0.000928   0.002281   0.000000  -0.000003  -0.000000  -0.000000
    13  C   -0.036343   0.003995   0.000000   0.000000  -0.000000   0.000000
    14  C    0.004045  -0.037083  -0.000000   0.000000   0.000000   0.000000
    15  C    0.369003  -0.036168  -0.000000  -0.000000   0.000000  -0.000000
    16  H   -0.004126  -0.000149   0.000000   0.000000  -0.000000   0.000000
    17  C   -0.036148   0.368184   0.000000  -0.000000  -0.000000   0.000000
    18  H   -0.000149  -0.004260   0.000000   0.000000  -0.000000   0.000000
    19  H    0.535461  -0.004600   0.000000   0.000000   0.000000  -0.000000
    20  H   -0.004600   0.538346   0.000000   0.000000   0.000000  -0.000000
    21  C    0.000000   0.000000   4.644248  -0.072221   0.515214   0.535885
    22  C    0.000000   0.000000  -0.072221   4.829506  -0.057093   0.004883
    23  C    0.000000   0.000000   0.515214  -0.057093   4.654441  -0.056056
    24  C   -0.000000  -0.000000   0.535885   0.004883  -0.056056   5.023703
    25  C   -0.000000   0.000000  -0.048554   0.005742   0.532628  -0.043778
    26  C    0.000000   0.000000  -0.006771  -0.000077  -0.037849   0.511284
    27  H   -0.000000  -0.000000  -0.034814  -0.000158   0.003736   0.356034
    28  C    0.000000   0.000000  -0.039421  -0.000079  -0.007885  -0.035801
    29  H    0.000000   0.000000   0.003879  -0.000217  -0.038414   0.000272
    30  H    0.000000   0.000000   0.002023   0.000003   0.000928  -0.036342
    31  H    0.000000   0.000000   0.000902   0.000003   0.002281   0.003995
    32  N   -0.000000   0.000000   0.263795   0.350699  -0.040264  -0.076781
    33  N   -0.000000  -0.000000  -0.044994   0.313315   0.275052   0.009291
    34  N   -0.000090   0.000004   0.000000   0.000360   0.000000  -0.000000
    35  N    0.000004  -0.000099  -0.000000   0.000025   0.000000   0.000000
    36  C   -0.000000  -0.000002   0.000000   0.000018   0.000000   0.000000
    37  H   -0.000000  -0.000000  -0.000000  -0.000000  -0.000000   0.000000
    38  H   -0.000000  -0.000000  -0.000000  -0.000000  -0.000000   0.000000
    39  H   -0.000000  -0.000000   0.000000  -0.000001  -0.000000   0.000000
    40  C    0.000000  -0.000000   0.005906  -0.042660  -0.048336  -0.000119
    41  H   -0.000000   0.000000  -0.000141   0.000675  -0.001311  -0.000009
    42  H   -0.000000   0.000000  -0.000141   0.000679  -0.001315  -0.000009
    43  H    0.000000   0.000000   0.000016  -0.000392   0.002629   0.000006
    44  Co   0.000017  -0.000004   0.007733   0.366790   0.004872  -0.000538
              25         26         27         28         29         30
     1  C   -0.000000   0.000002  -0.000036   0.000000  -0.000000  -0.000000
     2  C   -0.000030   0.000073   0.000603  -0.000004   0.000003  -0.000003
     3  C    0.000002   0.000079  -0.000022  -0.000001  -0.000000   0.000002
     4  C   -0.000000  -0.000001   0.000123   0.000000   0.000000   0.000000
     5  C    0.000000   0.000000   0.000001  -0.000000   0.000000  -0.000000
     6  C   -0.000000  -0.000000   0.000001   0.000000   0.000000   0.000000
     7  H    0.000000   0.000126   0.006207   0.000001  -0.000000  -0.000009
     8  H    0.000000   0.000000  -0.000011  -0.000000  -0.000000   0.000000
     9  H   -0.000000  -0.000000  -0.000000   0.000000   0.000000   0.000000
    10  C   -0.000000  -0.000000   0.000000   0.000000   0.000000   0.000000
    11  C    0.000000  -0.000000   0.000000  -0.000000   0.000000   0.000000
    12  C    0.000000   0.000000  -0.000000  -0.000000  -0.000000   0.000000
    13  C    0.000000  -0.000000   0.000000   0.000000   0.000000  -0.000000
    14  C   -0.000000   0.000000  -0.000000  -0.000000   0.000000  -0.000000
    15  C    0.000000  -0.000000   0.000000   0.000000   0.000000   0.000000
    16  H   -0.000000   0.000000   0.000000   0.000000  -0.000000  -0.000000
    17  C   -0.000000   0.000000   0.000000   0.000000   0.000000   0.000000
    18  H    0.000000   0.000000  -0.000000   0.000000  -0.000000   0.000000
    19  H   -0.000000   0.000000  -0.000000   0.000000   0.000000   0.000000
    20  H    0.000000   0.000000  -0.000000   0.000000   0.000000   0.000000
    21  C   -0.048554  -0.006771  -0.034814  -0.039421   0.003879   0.002023
    22  C    0.005742  -0.000077  -0.000158  -0.000079  -0.000217   0.000003
    23  C    0.532628  -0.037849   0.003736  -0.007885  -0.038414   0.000928
    24  C   -0.043778   0.511284   0.356034  -0.035801   0.000272  -0.036342
    25  C    5.031054  -0.038804   0.000451   0.517995   0.362408   0.004045
    26  C   -0.038804   4.899114  -0.036258   0.556527   0.003936   0.369003
    27  H    0.000451  -0.036258   0.519722   0.003747   0.000014  -0.004126
    28  C    0.517995   0.556527   0.003747   4.888543  -0.035823  -0.036148
    29  H    0.362408   0.003936   0.000014  -0.035823   0.537367  -0.000149
    30  H    0.004045   0.369003  -0.004126  -0.036148  -0.000149   0.535460
    31  H   -0.037083  -0.036168  -0.000149   0.368183  -0.004261  -0.004600
    32  N    0.008922   0.005125  -0.004811  -0.000187  -0.000090  -0.000090
    33  N   -0.083798  -0.000128  -0.000099   0.005405  -0.007143   0.000004
    34  N    0.000000   0.000000   0.000000   0.000000  -0.000000  -0.000000
    35  N   -0.000000   0.000000   0.000000   0.000000  -0.000000  -0.000000
    36  C    0.000000  -0.000000   0.000000   0.000000  -0.000000   0.000000
    37  H    0.000000  -0.000000   0.000000  -0.000000  -0.000000  -0.000000
    38  H    0.000000  -0.000000   0.000000  -0.000000  -0.000000  -0.000000
    39  H    0.000000  -0.000000   0.000000  -0.000000   0.000000   0.000000
    40  C   -0.002963   0.000009   0.000003  -0.000115   0.004125  -0.000000
    41  H    0.002792  -0.000002  -0.000000  -0.000006   0.000532  -0.000000
    42  H    0.002794  -0.000002  -0.000000  -0.000006   0.000533  -0.000000
    43  H    0.000029  -0.000000  -0.000000   0.000001  -0.000033  -0.000000
    44  Co  -0.000455  -0.000007   0.000058   0.000000   0.000019   0.000017
              31         32         33         34         35         36
     1  C   -0.000000  -0.034624   0.001305  -0.034623   0.001305  -0.000017
     2  C   -0.000000   0.264132   0.006493   0.006620  -0.000045   0.000000
     3  C   -0.000000  -0.066177  -0.000162   0.000684   0.000000  -0.000000
     4  C   -0.000000   0.004189   0.000001   0.004190   0.000001  -0.000000
     5  C    0.000000   0.000684   0.000000  -0.066177  -0.000162   0.000002
     6  C   -0.000000   0.006620  -0.000045   0.264133   0.006493  -0.000058
     7  H    0.000000  -0.004499   0.000002   0.000006  -0.000000  -0.000000
     8  H   -0.000000  -0.000103  -0.000000  -0.000103  -0.000000   0.000000
     9  H   -0.000000   0.000006  -0.000000  -0.004499   0.000002  -0.000000
    10  C    0.000000   0.000000  -0.000000   0.263797  -0.044994   0.005906
    11  C    0.000000   0.000360   0.000025   0.350699   0.313318  -0.042660
    12  C    0.000000   0.000000   0.000000  -0.040266   0.275051  -0.048336
    13  C   -0.000000  -0.000000   0.000000  -0.076779   0.009290  -0.000119
    14  C    0.000000   0.000000  -0.000000   0.008922  -0.083799  -0.002963
    15  C    0.000000   0.000000   0.000000   0.005125  -0.000128   0.000009
    16  H   -0.000000   0.000000   0.000000  -0.004811  -0.000099   0.000003
    17  C    0.000000   0.000000   0.000000  -0.000187   0.005405  -0.000115
    18  H    0.000000  -0.000000  -0.000000  -0.000090  -0.007143   0.004125
    19  H    0.000000  -0.000000  -0.000000  -0.000090   0.000004  -0.000000
    20  H    0.000000   0.000000  -0.000000   0.000004  -0.000099  -0.000002
    21  C    0.000902   0.263795  -0.044994   0.000000  -0.000000   0.000000
    22  C    0.000003   0.350699   0.313315   0.000360   0.000025   0.000018
    23  C    0.002281  -0.040264   0.275052   0.000000   0.000000   0.000000
    24  C    0.003995  -0.076781   0.009291  -0.000000   0.000000   0.000000
    25  C   -0.037083   0.008922  -0.083798   0.000000  -0.000000   0.000000
    26  C   -0.036168   0.005125  -0.000128   0.000000   0.000000  -0.000000
    27  H   -0.000149  -0.004811  -0.000099   0.000000   0.000000   0.000000
    28  C    0.368183  -0.000187   0.005405   0.000000   0.000000   0.000000
    29  H   -0.004261  -0.000090  -0.007143  -0.000000  -0.000000  -0.000000
    30  H   -0.004600  -0.000090   0.000004  -0.000000  -0.000000   0.000000
    31  H    0.538349   0.000004  -0.000099   0.000000  -0.000000  -0.000000
    32  N    0.000004   7.176406  -0.059477  -0.000171   0.000001  -0.000000
    33  N   -0.000099  -0.059477   7.056252   0.000001  -0.000000  -0.000000
    34  N    0.000000  -0.000171   0.000001   7.176395  -0.059477   0.004779
    35  N   -0.000000   0.000001  -0.000000  -0.059477   7.056253   0.298725
    36  C   -0.000000  -0.000000  -0.000000   0.004779   0.298725   5.049773
    37  H    0.000000   0.000000  -0.000000  -0.000068  -0.042342   0.377909
    38  H    0.000000   0.000000  -0.000000  -0.000068  -0.042346   0.377914
    39  H    0.000000  -0.000000   0.000001   0.000146  -0.032386   0.377331
    40  C   -0.000002   0.004779   0.298727  -0.000000  -0.000000   0.000000
    41  H   -0.000000  -0.000068  -0.042347   0.000000  -0.000000  -0.000000
    42  H   -0.000000  -0.000068  -0.042342   0.000000  -0.000000  -0.000000
    43  H   -0.000000   0.000146  -0.032386  -0.000000   0.000001  -0.000001
    44  Co  -0.000004  -0.082458  -0.052792  -0.082458  -0.052793  -0.002819
              37         38         39         40         41         42
     1  C   -0.000000  -0.000000  -0.000022  -0.000017  -0.000000  -0.000000
     2  C   -0.000000  -0.000000   0.000001  -0.000058   0.000004   0.000004
     3  C    0.000000   0.000000   0.000000   0.000002  -0.000000  -0.000000
     4  C    0.000000   0.000000  -0.000000  -0.000000   0.000000   0.000000
     5  C   -0.000000  -0.000000   0.000000  -0.000000   0.000000   0.000000
     6  C    0.000004   0.000004  -0.000014   0.000000  -0.000000  -0.000000
     7  H    0.000000   0.000000   0.000000  -0.000000  -0.000000  -0.000000
     8  H   -0.000000  -0.000000   0.000000   0.000000  -0.000000  -0.000000
     9  H   -0.000000  -0.000000   0.000000  -0.000000   0.000000   0.000000
    10  C   -0.000141  -0.000141   0.000016   0.000000  -0.000000  -0.000000
    11  C    0.000679   0.000675  -0.000392   0.000018  -0.000000  -0.000000
    12  C   -0.001315  -0.001311   0.002629   0.000000  -0.000000  -0.000000
    13  C   -0.000009  -0.000009   0.000006   0.000000   0.000000   0.000000
    14  C    0.002794   0.002792   0.000029   0.000000   0.000000   0.000000
    15  C   -0.000002  -0.000002  -0.000000  -0.000000  -0.000000  -0.000000
    16  H   -0.000000  -0.000000  -0.000000   0.000000   0.000000   0.000000
    17  C   -0.000006  -0.000006   0.000001   0.000000  -0.000000  -0.000000
    18  H    0.000533   0.000532  -0.000033  -0.000000  -0.000000  -0.000000
    19  H   -0.000000  -0.000000  -0.000000   0.000000  -0.000000  -0.000000
    20  H   -0.000000  -0.000000  -0.000000  -0.000000   0.000000   0.000000
    21  C   -0.000000  -0.000000   0.000000   0.005906  -0.000141  -0.000141
    22  C   -0.000000  -0.000000  -0.000001  -0.042660   0.000675   0.000679
    23  C   -0.000000  -0.000000  -0.000000  -0.048336  -0.001311  -0.001315
    24  C    0.000000   0.000000   0.000000  -0.000119  -0.000009  -0.000009
    25  C    0.000000   0.000000   0.000000  -0.002963   0.002792   0.002794
    26  C   -0.000000  -0.000000  -0.000000   0.000009  -0.000002  -0.000002
    27  H    0.000000   0.000000   0.000000   0.000003  -0.000000  -0.000000
    28  C   -0.000000  -0.000000  -0.000000  -0.000115  -0.000006  -0.000006
    29  H   -0.000000  -0.000000   0.000000   0.004125   0.000532   0.000533
    30  H   -0.000000  -0.000000   0.000000  -0.000000  -0.000000  -0.000000
    31  H    0.000000   0.000000   0.000000  -0.000002  -0.000000  -0.000000
    32  N    0.000000   0.000000  -0.000000   0.004779  -0.000068  -0.000068
    33  N   -0.000000  -0.000000   0.000001   0.298727  -0.042347  -0.042342
    34  N   -0.000068  -0.000068   0.000146  -0.000000   0.000000   0.000000
    35  N   -0.042342  -0.042346  -0.032386  -0.000000  -0.000000  -0.000000
    36  C    0.377909   0.377914   0.377331   0.000000  -0.000000  -0.000000
    37  H    0.524555  -0.040510  -0.025297  -0.000000  -0.000000   0.000000
    38  H   -0.040510   0.524555  -0.025305  -0.000000   0.000000  -0.000000
    39  H   -0.025297  -0.025305   0.481795  -0.000001   0.000000   0.000000
    40  C   -0.000000  -0.000000  -0.000001   5.049772   0.377914   0.377909
    41  H   -0.000000   0.000000   0.000000   0.377914   0.524559  -0.040511
    42  H    0.000000  -0.000000   0.000000   0.377909  -0.040511   0.524558
    43  H    0.000000   0.000000  -0.000024   0.377331  -0.025306  -0.025296
    44  Co   0.000974   0.000978   0.007154  -0.002819   0.000978   0.000974
              43         44
     1  C   -0.000022   0.269552
     2  C   -0.000014  -0.070230
     3  C    0.000000   0.003248
     4  C   -0.000000   0.002762
     5  C    0.000000   0.003248
     6  C    0.000001  -0.070231
     7  H    0.000000  -0.000492
     8  H    0.000000   0.000180
     9  H    0.000000  -0.000492
    10  C    0.000000   0.007733
    11  C   -0.000001   0.366791
    12  C   -0.000000   0.004872
    13  C    0.000000  -0.000538
    14  C    0.000000  -0.000455
    15  C   -0.000000  -0.000007
    16  H    0.000000   0.000058
    17  C   -0.000000   0.000000
    18  H    0.000000   0.000019
    19  H    0.000000   0.000017
    20  H    0.000000  -0.000004
    21  C    0.000016   0.007733
    22  C   -0.000392   0.366790
    23  C    0.002629   0.004872
    24  C    0.000006  -0.000538
    25  C    0.000029  -0.000455
    26  C   -0.000000  -0.000007
    27  H   -0.000000   0.000058
    28  C    0.000001   0.000000
    29  H   -0.000033   0.000019
    30  H   -0.000000   0.000017
    31  H   -0.000000  -0.000004
    32  N    0.000146  -0.082458
    33  N   -0.032386  -0.052792
    34  N   -0.000000  -0.082458
    35  N    0.000001  -0.052793
    36  C   -0.000001  -0.002819
    37  H    0.000000   0.000974
    38  H    0.000000   0.000978
    39  H   -0.000024   0.007154
    40  C    0.377331  -0.002819
    41  H   -0.025306   0.000978
    42  H   -0.025296   0.000974
    43  H    0.481797   0.007154
    44  Co   0.007154  16.276422
          Atomic-Atomic Spin Densities.
               1          2          3          4          5          6
     1  C   -0.209973  -0.011363   0.003418   0.002881   0.003418  -0.011363
     2  C   -0.011363   0.114582   0.006214  -0.004134   0.000853   0.003541
     3  C    0.003418   0.006214  -0.084749  -0.006047   0.000765   0.000853
     4  C    0.002881  -0.004134  -0.006047   0.139893  -0.006047  -0.004134
     5  C    0.003418   0.000853   0.000765  -0.006047  -0.084748   0.006214
     6  C   -0.011363   0.003541   0.000853  -0.004134   0.006214   0.114584
     7  H   -0.000254  -0.000207   0.002233   0.000420   0.000015  -0.000067
     8  H   -0.000063   0.000013   0.000078  -0.000030   0.000078   0.000013
     9  H   -0.000254  -0.000067   0.000015   0.000420   0.002233  -0.000207
    10  C   -0.000177  -0.000020   0.000001   0.000016   0.000323  -0.000288
    11  C    0.004852  -0.000968  -0.000001   0.000032  -0.000196  -0.006604
    12  C    0.000037   0.000000  -0.000000  -0.000000  -0.000009   0.000038
    13  C    0.000019   0.000000  -0.000000   0.000006  -0.000210  -0.000348
    14  C    0.000001   0.000000  -0.000000   0.000000  -0.000001  -0.000018
    15  C   -0.000000   0.000000   0.000000  -0.000000   0.000002   0.000010
    16  H   -0.000001  -0.000000  -0.000000   0.000001   0.000041   0.000044
    17  C   -0.000000  -0.000000   0.000000  -0.000000   0.000000   0.000001
    18  H    0.000000  -0.000000  -0.000000   0.000000   0.000000   0.000000
    19  H    0.000000   0.000000  -0.000000  -0.000000  -0.000000   0.000000
    20  H    0.000000   0.000000  -0.000000  -0.000000  -0.000000  -0.000000
    21  C   -0.000177  -0.000288   0.000323   0.000016   0.000001  -0.000020
    22  C    0.004852  -0.006604  -0.000196   0.000032  -0.000001  -0.000968
    23  C    0.000037   0.000038  -0.000009  -0.000000  -0.000000   0.000000
    24  C    0.000019  -0.000348  -0.000210   0.000006  -0.000000   0.000000
    25  C    0.000001  -0.000018  -0.000001   0.000000  -0.000000   0.000000
    26  C   -0.000000   0.000010   0.000002  -0.000000   0.000000   0.000000
    27  H   -0.000001   0.000044   0.000041   0.000001  -0.000000  -0.000000
    28  C   -0.000000   0.000001   0.000000  -0.000000   0.000000  -0.000000
    29  H    0.000000   0.000000   0.000000   0.000000  -0.000000  -0.000000
    30  H    0.000000   0.000000  -0.000000  -0.000000  -0.000000   0.000000
    31  H    0.000000  -0.000000  -0.000000  -0.000000  -0.000000   0.000000
    32  N    0.000323   0.011586   0.002710   0.000003   0.000021  -0.000054
    33  N   -0.000547   0.000402  -0.000008  -0.000000  -0.000000   0.000004
    34  N    0.000323  -0.000054   0.000021   0.000003   0.002710   0.011586
    35  N   -0.000547   0.000004  -0.000000  -0.000000  -0.000008   0.000402
    36  C   -0.000011   0.000000  -0.000000  -0.000000  -0.000000  -0.000005
    37  H    0.000001  -0.000000  -0.000000   0.000000  -0.000000  -0.000001
    38  H    0.000001  -0.000000  -0.000000   0.000000  -0.000000  -0.000001
    39  H    0.000010   0.000000   0.000000   0.000000   0.000000  -0.000000
    40  C   -0.000011  -0.000005  -0.000000  -0.000000  -0.000000   0.000000
    41  H    0.000001  -0.000001  -0.000000   0.000000  -0.000000  -0.000000
    42  H    0.000001  -0.000001  -0.000000   0.000000  -0.000000  -0.000000
    43  H    0.000010  -0.000000   0.000000   0.000000   0.000000   0.000000
    44  Co   0.029596  -0.011826  -0.001604   0.001566  -0.001604  -0.011826
               7          8          9         10         11         12
     1  C   -0.000254  -0.000063  -0.000254  -0.000177   0.004852   0.000037
     2  C   -0.000207   0.000013  -0.000067  -0.000020  -0.000968   0.000000
     3  C    0.002233   0.000078   0.000015   0.000001  -0.000001  -0.000000
     4  C    0.000420  -0.000030   0.000420   0.000016   0.000032  -0.000000
     5  C    0.000015   0.000078   0.002233   0.000323  -0.000196  -0.000009
     6  C   -0.000067   0.000013  -0.000207  -0.000288  -0.006604   0.000038
     7  H   -0.001371  -0.000014  -0.000009  -0.000000   0.000000   0.000000
     8  H   -0.000014  -0.006565  -0.000014  -0.000000   0.000000   0.000000
     9  H   -0.000009  -0.000014  -0.001371  -0.000061   0.000013   0.000001
    10  C   -0.000000  -0.000000  -0.000061  -0.004677   0.001554  -0.001943
    11  C    0.000000   0.000000   0.000013   0.001554   0.204427  -0.001427
    12  C    0.000000   0.000000   0.000001  -0.001943  -0.001427  -0.027001
    13  C    0.000000   0.000000   0.000065   0.004162   0.000286   0.000609
    14  C    0.000000   0.000000   0.000000   0.000803   0.000520   0.000307
    15  C    0.000000   0.000000   0.000004  -0.000767  -0.000027   0.000177
    16  H   -0.000000  -0.000000  -0.000101  -0.000149  -0.000001  -0.000006
    17  C   -0.000000  -0.000000  -0.000000   0.000117  -0.000014  -0.000252
    18  H   -0.000000  -0.000000  -0.000000  -0.000008  -0.000002  -0.000060
    19  H   -0.000000  -0.000000  -0.000000   0.000003  -0.000000  -0.000007
    20  H    0.000000   0.000000   0.000000  -0.000006   0.000000   0.000013
    21  C   -0.000061  -0.000000  -0.000000  -0.000000   0.000001  -0.000000
    22  C    0.000013   0.000000   0.000000   0.000001   0.001983   0.000000
    23  C    0.000001   0.000000   0.000000  -0.000000   0.000000   0.000000
    24  C    0.000065   0.000000   0.000000   0.000000   0.000000   0.000000
    25  C    0.000000   0.000000   0.000000   0.000000   0.000000   0.000000
    26  C    0.000004   0.000000   0.000000  -0.000000  -0.000000  -0.000000
    27  H   -0.000101  -0.000000  -0.000000  -0.000000   0.000000  -0.000000
    28  C   -0.000000  -0.000000  -0.000000  -0.000000  -0.000000   0.000000
    29  H   -0.000000  -0.000000  -0.000000   0.000000   0.000000  -0.000000
    30  H   -0.000000  -0.000000  -0.000000  -0.000000  -0.000000   0.000000
    31  H    0.000000   0.000000   0.000000   0.000000  -0.000000  -0.000000
    32  N   -0.000267  -0.000000  -0.000001  -0.000000  -0.000043  -0.000000
    33  N    0.000001   0.000000   0.000000   0.000000  -0.000005   0.000000
    34  N   -0.000001  -0.000000  -0.000267  -0.000747  -0.030423   0.001398
    35  N    0.000000   0.000000   0.000001  -0.000737  -0.043058   0.006306
    36  C    0.000000   0.000000   0.000000  -0.000034   0.000538   0.000334
    37  H   -0.000000  -0.000000  -0.000000   0.000004   0.000445  -0.000125
    38  H   -0.000000  -0.000000  -0.000000   0.000004   0.000446  -0.000126
    39  H   -0.000000  -0.000000  -0.000000   0.000000  -0.000521  -0.000045
    40  C    0.000000   0.000000   0.000000   0.000000  -0.000001  -0.000000
    41  H   -0.000000  -0.000000  -0.000000   0.000000   0.000000  -0.000000
    42  H   -0.000000  -0.000000  -0.000000   0.000000   0.000000  -0.000000
    43  H   -0.000000  -0.000000  -0.000000  -0.000000   0.000002   0.000000
    44  Co   0.000243   0.000018   0.000243   0.001228   0.059457   0.000210
              13         14         15         16         17         18
     1  C    0.000019   0.000001  -0.000000  -0.000001  -0.000000   0.000000
     2  C    0.000000   0.000000   0.000000  -0.000000  -0.000000  -0.000000
     3  C   -0.000000  -0.000000   0.000000  -0.000000   0.000000  -0.000000
     4  C    0.000006   0.000000  -0.000000   0.000001  -0.000000   0.000000
     5  C   -0.000210  -0.000001   0.000002   0.000041   0.000000   0.000000
     6  C   -0.000348  -0.000018   0.000010   0.000044   0.000001   0.000000
     7  H    0.000000   0.000000   0.000000  -0.000000  -0.000000  -0.000000
     8  H    0.000000   0.000000   0.000000  -0.000000  -0.000000  -0.000000
     9  H    0.000065   0.000000   0.000004  -0.000101  -0.000000  -0.000000
    10  C    0.004162   0.000803  -0.000767  -0.000149   0.000117  -0.000008
    11  C    0.000286   0.000520  -0.000027  -0.000001  -0.000014  -0.000002
    12  C    0.000609   0.000307   0.000177  -0.000006  -0.000252  -0.000060
    13  C    0.021039   0.000978  -0.009355   0.000190  -0.001229  -0.000005
    14  C    0.000978   0.049977  -0.002090  -0.000002  -0.007052   0.000058
[...]
    40 C(13)  Bbb    -0.0032    -0.433    -0.155    -0.144 -0.6550  0.7556  0.0001
              Bcc     0.0087     1.164     0.415     0.388  0.7556  0.6550  0.0001
 
              Baa    -0.0038    -2.051    -0.732    -0.684 -0.0374  0.3492  0.9363
    41 H(1)   Bbb    -0.0024    -1.298    -0.463    -0.433 -0.6754  0.6817 -0.2812
              Bcc     0.0063     3.349     1.195     1.117  0.7365  0.6429 -0.2103
 
              Baa    -0.0038    -2.050    -0.732    -0.684  0.0375 -0.3491  0.9363
    42 H(1)   Bbb    -0.0024    -1.298    -0.463    -0.433 -0.6754  0.6818  0.2812
              Bcc     0.0063     3.349     1.195     1.117  0.7365  0.6429  0.2102
 
              Baa    -0.0071    -3.783    -1.350    -1.262  0.0000 -0.0002  1.0000
    43 H(1)   Bbb    -0.0058    -3.073    -1.096    -1.025  0.7787 -0.6274 -0.0001
              Bcc     0.0128     6.855     2.446     2.287  0.6274  0.7787  0.0001
 
              Baa    -1.4672  -185.277   -66.111   -61.802  1.0000 -0.0000  0.0000
    44 Co(59) Bbb     0.3014    38.057    13.580    12.695  0.0000  1.0000  0.0000
              Bcc     1.1658   147.220    52.532    49.107 -0.0000 -0.0000  1.0000
 

 ---------------------------------------------------------------------------------

   1 Symmetry operations used in ECPInt.
 ECPInt:  NShTT=   11781 NPrTT=   71406 LenC2=    9550 LenP2D=   32135.
 LDataN:  DoStor=T MaxTD1= 7 Len=  274
 Calling FoFJK, ICntrl=      2127 FMM=F ISym2X=0 I1Cent= 0 IOpClX= 1 NMat=1 NMatS=1 NMatT=0.
 -------------------------------------------------------------------
 Center     Atomic                   Forces (Hartrees/Bohr)
 Number     Number              X              Y              Z
 -------------------------------------------------------------------
      1        6           0.000001561   -0.000517499   -0.000007783
      2        6           0.027110985    0.011751048    0.000002493
      3        6           0.000498136   -0.002913604    0.000001473
      4        6          -0.000003167    0.004610907   -0.000000909
      5        6          -0.000492837   -0.002914345    0.000001201
      6        6          -0.027118479    0.011754631    0.000002800
      7        1           0.000181919    0.001043442   -0.000000418
      8        1           0.000000282   -0.002651437   -0.000000043
      9        1          -0.000183270    0.001042683   -0.000000526
     10        6           0.000536431   -0.001302353   -0.000000123
     11        6           0.006500605    0.000531870   -0.000008724
     12        6           0.006890802    0.004638012   -0.000000146
     13        6           0.004076788   -0.001794628   -0.000000917
     14        6          -0.002360774    0.002082635    0.000000307
     15        6          -0.006537515    0.002384305    0.000000867
     16        1          -0.000131302    0.000864833    0.000000012
     17        6           0.000810612   -0.004137102   -0.000000283
     18        1           0.000312511    0.000146022    0.000000031
     19        1           0.000828042    0.000612823   -0.000000072
     20        1          -0.000196103    0.000043741    0.000000006
     21        6          -0.000529800   -0.001312329   -0.000001562
     22        6          -0.006509202    0.000530593   -0.000006855
     23        6          -0.006896403    0.004634350    0.000000125
     24        6          -0.004082186   -0.001783277   -0.000000210
     25        6           0.002368488    0.002083303    0.000000352
     26        6           0.006541547    0.002381344    0.000000370
     27        1           0.000130423    0.000861227   -0.000000063
     28        6          -0.000817905   -0.004135315   -0.000000343
     29        1          -0.000313229    0.000144883   -0.000000073
     30        1          -0.000829273    0.000614357   -0.000000014
     31        1           0.000199059    0.000044166    0.000000025
     32        7          -0.014231725   -0.020875832    0.000003673
     33        7           0.013044358    0.006833240    0.000003302
     34        7           0.014238785   -0.020880076    0.000001153
     35        7          -0.013038331    0.006820504    0.000005573
     36        6           0.000668353   -0.004756242   -0.000001677
     37        1          -0.000000310    0.000373884    0.000517918
     38        1          -0.000000158    0.000374730   -0.000517772
     39        1           0.000397175    0.000986584    0.000000486
     40        6          -0.000670805   -0.004763358   -0.000001232
     41        1           0.000000678    0.000374881   -0.000518665
     42        1           0.000000736    0.000374088    0.000518644
     43        1          -0.000397099    0.000986901    0.000000649
     44       27           0.000001596    0.004811409    0.000006949
 -------------------------------------------------------------------
 Cartesian Forces:  Max     0.027118479 RMS     0.005506051

 GradGradGradGradGradGradGradGradGradGradGradGradGradGradGradGradGradGrad
 Berny optimization.
 Search for a local minimum.
 Step number   1 out of a maximum of    2
 All quantities printed in internal units (Hartrees-Bohrs-Radians)
 Second derivative matrix not updated -- first step.
 ITU=  0
     Eigenvalues ---    0.00056   0.00064   0.00198   0.00247   0.00248
     Eigenvalues ---    0.00391   0.00451   0.00618   0.00637   0.00649
     Eigenvalues ---    0.00672   0.00844   0.00845   0.01328   0.01599
     Eigenvalues ---    0.01831   0.01982   0.02045   0.02547   0.02553
     Eigenvalues ---    0.03058   0.03264   0.04077   0.04176   0.04450
     Eigenvalues ---    0.04516   0.04703   0.05402   0.05528   0.06437
     Eigenvalues ---    0.06443   0.06920   0.06948   0.07013   0.07063
     Eigenvalues ---    0.07064   0.07303   0.07687   0.07754   0.09634
     Eigenvalues ---    0.10199   0.10454   0.10492   0.11818   0.11925
     Eigenvalues ---    0.11988   0.12278   0.12540   0.12801   0.13384
     Eigenvalues ---    0.13396   0.13533   0.13676   0.14835   0.15715
     Eigenvalues ---    0.15905   0.16249   0.19587   0.20265   0.20770
     Eigenvalues ---    0.21434   0.22433   0.24551   0.25981   0.28938
     Eigenvalues ---    0.29773   0.30828   0.30875   0.31280   0.31725
     Eigenvalues ---    0.32961   0.34845   0.36724   0.38467   0.38565
     Eigenvalues ---    0.39023   0.41346   0.42908   0.46492   0.48160
     Eigenvalues ---    0.48857   0.48881   0.49406   0.52432   0.53486
     Eigenvalues ---    0.53814   0.54453   0.56226   0.64330   0.68822
     Eigenvalues ---    0.71817   0.73792   0.74577   0.86210   0.88074
     Eigenvalues ---    0.90751   0.91969   0.94337   0.95242   0.95699
     Eigenvalues ---    0.97579   0.97870   1.03219   1.05394   1.13992
     Eigenvalues ---    1.15792   1.17146   1.18150   1.21227   1.26275
     Eigenvalues ---    1.32143   1.38479   1.38493   1.45902   1.47745
     Eigenvalues ---    1.49500   1.52020   1.53768   1.61794   1.64951
     Eigenvalues ---    1.66444   1.66774   1.76242   1.78707   1.81683
     Eigenvalues ---    1.83821
 Angle between quadratic step and forces=  56.03 degrees.
 Linear search not attempted -- first point.
 B after Tr=    -0.000000   -0.000605   -0.000004
         Rot=    1.000000   -0.000000   -0.000000    0.000000 Ang=  -0.00 deg.
 Variable       Old X    -DE/DX   Delta X   Delta X   Delta X     New X
                                 (Linear)    (Quad)   (Total)
    X1        0.00000   0.00000   0.00000   0.00000   0.00000   0.00000
    Y1        1.29938  -0.00052   0.00000  -0.00652  -0.00712   1.29226
    Z1        0.00021  -0.00001   0.00000  -0.00005  -0.00005   0.00016
    X2       -2.33780   0.02711   0.00000   0.02994   0.02994  -2.30786
    Y2        2.55672   0.01175   0.00000   0.00105   0.00044   2.55716
    Z2        0.00008   0.00000   0.00000   0.00000   0.00000   0.00008
    X3       -2.33886   0.00050   0.00000   0.01317   0.01317  -2.32570
    Y3        5.19375  -0.00291   0.00000  -0.00088  -0.00148   5.19227
    Z3       -0.00001   0.00000   0.00000   0.00004   0.00004   0.00003
    X4        0.00001  -0.00000   0.00000  -0.00000  -0.00000   0.00000
    Y4        6.43563   0.00461   0.00000   0.01365   0.01305   6.44868
    Z4        0.00003  -0.00000   0.00000   0.00003   0.00003   0.00006
    X5        2.33886  -0.00049   0.00000  -0.01316  -0.01316   2.32570
    Y5        5.19375  -0.00291   0.00000  -0.00088  -0.00149   5.19227
    Z5        0.00009   0.00000   0.00000   0.00002   0.00001   0.00010
    X6        2.33782  -0.02712   0.00000  -0.02995  -0.02995   2.30787
    Y6        2.55672   0.01175   0.00000   0.00105   0.00044   2.55716
    Z6        0.00016   0.00000   0.00000  -0.00002  -0.00002   0.00014
    X7       -4.07228   0.00018   0.00000   0.01167   0.01167  -4.06062
    Y7        6.28396   0.00104   0.00000  -0.00114  -0.00175   6.28221
    Z7       -0.00009  -0.00000   0.00000   0.00006   0.00006  -0.00003
    X8        0.00000   0.00000   0.00000   0.00000   0.00000   0.00000
    Y8        8.49649  -0.00265   0.00000   0.00602   0.00542   8.50190
    Z8       -0.00002  -0.00000   0.00000   0.00004   0.00004   0.00002
    X9        4.07229  -0.00018   0.00000  -0.01167  -0.01167   4.06062
    Y9        6.28396   0.00104   0.00000  -0.00115  -0.00175   6.28221
    Z9        0.00009  -0.00000   0.00000   0.00001   0.00001   0.00011
   X10        6.91399   0.00054   0.00000  -0.00363  -0.00363   6.91036
   Y10        1.09402  -0.00130   0.00000  -0.00558  -0.00618   1.08784
   Z10       -0.00004  -0.00000   0.00000  -0.00002  -0.00003  -0.00006
   X11        3.56860   0.00650   0.00000  -0.00370  -0.00370   3.56489
   Y11       -1.69444   0.00053   0.00000  -0.00415  -0.00475  -1.69920
   Z11        0.00020  -0.00001   0.00000  -0.00005  -0.00006   0.00014
   X12        7.86426   0.00689   0.00000  -0.00306  -0.00306   7.86120
   Y12       -1.40193   0.00464   0.00000   0.00384   0.00323  -1.39870
   Z12       -0.00019  -0.00000   0.00000   0.00000  -0.00000  -0.00019
   X13        8.54982   0.00408   0.00000  -0.00950  -0.00950   8.54032
   Y13        3.14635  -0.00179   0.00000  -0.00201  -0.00262   3.14373
   Z13       -0.00010  -0.00000   0.00000  -0.00003  -0.00003  -0.00013
   X14       10.44809  -0.00236   0.00000  -0.00960  -0.00960  10.43849
   Y14       -1.89303   0.00208   0.00000   0.00288   0.00227  -1.89075
   Z14       -0.00038   0.00000   0.00000   0.00003   0.00002  -0.00036
   X15       11.15315  -0.00654   0.00000  -0.01833  -0.01832  11.13483
   Y15        2.64692   0.00238   0.00000   0.00240   0.00180   2.64872
   Z15       -0.00032   0.00000   0.00000   0.00000  -0.00000  -0.00032
   X16        7.86277  -0.00013   0.00000  -0.01172  -0.01172   7.85105
   Y16        5.07159   0.00086   0.00000  -0.00026  -0.00086   5.07073
   Z16        0.00002   0.00000   0.00000  -0.00005  -0.00005  -0.00003
   X17       12.07878   0.00081   0.00000  -0.01121  -0.01121  12.06757
   Y17        0.18595  -0.00414   0.00000  -0.00109  -0.00170   0.18425
   Z17       -0.00046  -0.00000   0.00000   0.00003   0.00002  -0.00043
   X18       11.16398   0.00031   0.00000  -0.00661  -0.00661  11.15737
   Y18       -3.81553   0.00015   0.00000   0.00408   0.00347  -3.81206
   Z18       -0.00047   0.00000   0.00000   0.00005   0.00005  -0.00043
   X19       12.46002   0.00083   0.00000  -0.01646  -0.01645  12.44357
   Y19        4.22524   0.00061   0.00000   0.00451   0.00391   4.22915
   Z19       -0.00037  -0.00000   0.00000  -0.00000  -0.00000  -0.00037
   X20       14.10652  -0.00020   0.00000  -0.01149  -0.01149  14.09503
   Y20       -0.13426   0.00004   0.00000   0.00080   0.00019  -0.13406
   Z20       -0.00061   0.00000   0.00000   0.00005   0.00004  -0.00057
   X21       -6.91399  -0.00053   0.00000   0.00363   0.00363  -6.91036
   Y21        1.09402  -0.00131   0.00000  -0.00558  -0.00619   1.08784
   Z21       -0.00006  -0.00000   0.00000  -0.00000  -0.00001  -0.00007
   X22       -3.56858  -0.00651   0.00000   0.00370   0.00370  -3.56488
   Y22       -1.69445   0.00053   0.00000  -0.00414  -0.00475  -1.69919
   Z22        0.00011  -0.00001   0.00000  -0.00003  -0.00004   0.00007
   X23       -7.86424  -0.00690   0.00000   0.00306   0.00306  -7.86118
   Y23       -1.40194   0.00463   0.00000   0.00383   0.00323  -1.39871
   Z23       -0.00012   0.00000   0.00000   0.00001   0.00000  -0.00012
   X24       -8.54981  -0.00408   0.00000   0.00949   0.00949  -8.54032
   Y24        3.14633  -0.00178   0.00000  -0.00200  -0.00261   3.14372
   Z24       -0.00009  -0.00000   0.00000  -0.00001  -0.00001  -0.00011
   X25      -10.44809   0.00237   0.00000   0.00961   0.00961 -10.43848
   Y25       -1.89304   0.00208   0.00000   0.00288   0.00228  -1.89077
   Z25       -0.00020   0.00000   0.00000   0.00002   0.00001  -0.00018
   X26      -11.15315   0.00654   0.00000   0.01832   0.01832 -11.13483
   Y26        2.64691   0.00238   0.00000   0.00240   0.00180   2.64870
   Z26       -0.00018   0.00000   0.00000  -0.00001  -0.00001  -0.00019
   X27       -7.86277   0.00013   0.00000   0.01171   0.01171  -7.85106
   Y27        5.07158   0.00086   0.00000  -0.00026  -0.00086   5.07072
   Z27       -0.00004  -0.00000   0.00000  -0.00002  -0.00002  -0.00006
   X28      -12.07877  -0.00082   0.00000   0.01121   0.01121 -12.06756
   Y28        0.18593  -0.00414   0.00000  -0.00109  -0.00170   0.18424
   Z28       -0.00023  -0.00000   0.00000   0.00001   0.00000  -0.00023
   X29      -11.16397  -0.00031   0.00000   0.00662   0.00662 -11.15735
   Y29       -3.81554   0.00014   0.00000   0.00407   0.00347  -3.81207
   Z29       -0.00021  -0.00000   0.00000   0.00002   0.00002  -0.00019
   X30      -12.46002  -0.00083   0.00000   0.01645   0.01645 -12.44357
   Y30        4.22522   0.00061   0.00000   0.00451   0.00391   4.22913
   Z30       -0.00021  -0.00000   0.00000  -0.00001  -0.00001  -0.00022
   X31      -14.10651   0.00020   0.00000   0.01149   0.01149 -14.09502
   Y31       -0.13428   0.00004   0.00000   0.00080   0.00019  -0.13409
   Z31       -0.00028   0.00000   0.00000   0.00001   0.00001  -0.00028
   X32       -4.30632  -0.01423   0.00000   0.00082   0.00082  -4.30549
   Y32        0.86407  -0.02088   0.00000  -0.02089  -0.02149   0.84258
   Z32        0.00002   0.00000   0.00000   0.00000   0.00000   0.00002
   X33       -5.82373   0.01304   0.00000   0.01791   0.01791  -5.80582
   Y33       -3.01082   0.00683   0.00000   0.00662   0.00602  -3.00480
   Z33       -0.00008   0.00000   0.00000   0.00000  -0.00000  -0.00008
   X34        4.30632   0.01424   0.00000  -0.00082  -0.00082   4.30550
   Y34        0.86408  -0.02088   0.00000  -0.02089  -0.02150   0.84258
   Z34        0.00017   0.00000   0.00000  -0.00003  -0.00004   0.00014
   X35        5.82374  -0.01304   0.00000  -0.01791  -0.01791   5.80583
   Y35       -3.01080   0.00682   0.00000   0.00661   0.00600  -3.00480
   Z35       -0.00010   0.00001   0.00000  -0.00001  -0.00001  -0.00011
   X36        6.00319   0.00067   0.00000  -0.01403  -0.01403   5.98916
   Y36       -5.70909  -0.00476   0.00000  -0.00070  -0.00131  -5.71040
   Z36        0.00001  -0.00000   0.00000   0.00001  -0.00000   0.00001
   X37        7.00067  -0.00000   0.00000  -0.01280  -0.01280   6.98787
   Y37       -6.38695   0.00037   0.00000   0.00241   0.00181  -6.38514
   Z37       -1.68671   0.00052   0.00000   0.00145   0.00144  -1.68527
   X38        6.99987  -0.00000   0.00000  -0.01282  -0.01282   6.98705
   Y38       -6.38695   0.00037   0.00000   0.00245   0.00184  -6.38510
   Z38        1.68720  -0.00052   0.00000  -0.00141  -0.00142   1.68578
   X39        4.09861   0.00040   0.00000  -0.01567  -0.01567   4.08294
   Y39       -6.50696   0.00099   0.00000   0.00882   0.00822  -6.49874
   Z39       -0.00046   0.00000   0.00000   0.00001  -0.00000  -0.00047
   X40       -6.00317  -0.00067   0.00000   0.01403   0.01403  -5.98914
   Y40       -5.70909  -0.00476   0.00000  -0.00071  -0.00131  -5.71040
   Z40        0.00008  -0.00000   0.00000   0.00001   0.00001   0.00009
   X41       -6.99974   0.00000   0.00000   0.01281   0.01281  -6.98692
   Y41       -6.38693   0.00037   0.00000   0.00244   0.00184  -6.38510
   Z41        1.68735  -0.00052   0.00000  -0.00141  -0.00142   1.68593
   X42       -7.00076   0.00000   0.00000   0.01281   0.01281  -6.98795
   Y42       -6.38698   0.00037   0.00000   0.00241   0.00181  -6.38517
   Z42       -1.68656   0.00052   0.00000   0.00145   0.00144  -1.68512
   X43       -4.09859  -0.00040   0.00000   0.01567   0.01567  -4.08292
   Y43       -6.50696   0.00099   0.00000   0.00882   0.00822  -6.49874
   Z43       -0.00052   0.00000   0.00000   0.00003   0.00002  -0.00050
   X44        0.00000   0.00000   0.00000   0.00000   0.00000   0.00000
   Y44       -2.21637   0.00481   0.00000   0.00716   0.00656  -2.20981
   Z44        0.00013   0.00001   0.00000  -0.00003  -0.00004   0.00009
         Item               Value     Threshold  Converged?
 Maximum Force            0.027118     0.000450     NO 
 RMS     Force            0.005506     0.000300     NO 
 Maximum Displacement     0.029949     0.001800     NO 
 RMS     Displacement     0.008174     0.001200     NO 
 Predicted change in Energy=-1.661270D-03
 GradGradGradGradGradGradGradGradGradGradGradGradGradGradGradGradGradGrad

 Unable to Open any file for archive entry.
 1\1\GINC-X11P1N5\Force\UPBE1PBE\GenECP\C22H17Co1N4(3)\MAYUMIAO\17-Jul-
 2024\0\\# pbe1pbe em=gd3bj genecp g09default scf=(xqc,maxcycle=64) for
 ce guess=read nosymm\\Title Card\\0,3\C,0.00000135,0.68760288,0.000111
 59\C,-1.23711225,1.35295795,0.00004185\C,-1.23767341,2.74841587,-0.000
 00406\C,0.0000028,3.4055896,0.00001385\C,1.23767385,2.74841593,0.00004
 715\C,1.23711871,1.35295643,0.00008445\H,-2.15496036,3.3253263,-0.0000
 4647\H,0.00000079,4.49614652,-0.00001091\H,2.15496298,3.32532754,0.000
 04889\C,3.65872502,0.57893158,-0.00001958\C,1.8884206,-0.89666121,0.00
 010659\C,4.161586,-0.74187165,-0.00009981\C,4.52436919,1.66497447,-0.0
 0005175\C,5.52889192,-1.00174772,-0.00020357\C,5.9019932,1.40068952,-0
 .00016899\H,4.16079854,2.68376963,0.0000132\C,6.39181733,0.0984007,-0.
 00024093\H,5.90772475,-2.01909105,-0.00024956\H,6.59356124,2.2359011,-
 0.00019597\H,7.46484645,-0.07104587,-0.00032333\C,-3.65872486,0.578931
 12,-0.00003122\C,-1.88840949,-0.89666268,0.00005662\C,-4.16157832,-0.7
 4187578,-0.00006515\C,-4.5243657,1.66496377,-0.00005007\C,-5.52888897,
 -1.0017559,-0.00010358\C,-5.90199301,1.40068257,-0.000097\H,-4.1607979
 8,2.68376577,-0.00002139\C,-6.39180961,0.09839126,-0.00012102\H,-5.907
 71738,-2.01909867,-0.00010974\H,-6.59356,2.23589086,-0.00010878\H,-7.4
 6484327,-0.07105689,-0.00015059\N,-2.2788039,0.45724819,0.00001291\N,-
 3.0817878,-1.59325844,-0.00004133\N,2.27880445,0.45725151,0.00009078\N
 ,3.08179178,-1.5932485,-0.00005054\C,3.17675188,-3.02112068,0.00000453
 \H,3.70459469,-3.37982602,-0.89256668\H,3.7041727,-3.37982758,0.892827
 97\H,2.16888985,-3.4433338,-0.00024552\C,-3.17674156,-3.02112055,0.000
 04257\H,-3.70410182,-3.37981982,0.89290772\H,-3.70464502,-3.37984438,-
 0.89248757\H,-2.16888004,-3.4433355,-0.00027268\Co,0.00000066,-1.17285
 134,0.00006711\\Version=ES64L-G16RevC.01\HF=-1212.1356903\S2=2.152333\
 S2-1=0.\S2A=2.003557\RMSD=2.914e-09\RMSF=5.506e-03\Dipole=0.0000598,-1
 .3631029,-0.0001255\Quadrupole=8.0146221,11.3265027,-19.3411248,-0.000
 1861,-0.0002945,0.0004517\PG=C01 [X(C22H17Co1N4)]\\@
 The archive entry for this job was punched.


 NOTHING WILL BE ATTEMPTED IF ALL POSSIBLE OBJECTIONS
 MUST FIRST BE OVERCOME.

                               -- THE GOLDEN PRINCIPLE,
                    PAUL DICKSON'S "THE OFFICIAL RULES"
 Job cpu time:       0 days  0 hours 53 minutes 48.3 seconds.
 Elapsed time:       0 days  0 hours  0 minutes 58.5 seconds.
 File lengths (MBytes):  RWF=    184 Int=      0 D2E=      0 Chk=     72 Scr=      1
 Normal termination of Gaussian 16 at Wed Jul 17 20:50:55 2024.
