 Entering Gaussian System, Link 0=g16
 Input=JOBS/14_B.gjf
 Output=JOBS/14_B.log
 Initial command:
 /data/app/gaussian/C01-avx2//g16/l1.exe "/tmp/Gau-2057557.inp" -scrdir="/tmp/"
 Entering Link 1 = /data/app/gaussian/C01-avx2//g16/l1.exe PID=   2057558.
  
 Copyright (c) 1988-2019, Gaussian, Inc.  All Rights Reserved.
  
 This is part of the Gaussian(R) 16 program.  It is based on
 the Gaussian(R) 09 system (copyright 2009, Gaussian, Inc.),
 the Gaussian(R) 03 system (copyright 2003, Gaussian, Inc.),
 the Gaussian(R) 98 system (copyright 1998, Gaussian, Inc.),
 the Gaussian(R) 94 system (copyright 1995, Gaussian, Inc.),
 the Gaussian 92(TM) system (copyright 1992, Gaussian, Inc.),
 the Gaussian 90(TM) system (copyright 1990, Gaussian, Inc.),
 the Gaussian 88(TM) system (copyright 1988, Gaussian, Inc.),
 the Gaussian 86(TM) system (copyright 1986, Carnegie Mellon
 University), and the Gaussian 82(TM) system (copyright 1983,
 Carnegie Mellon University). Gaussian is a federally registered
 trademark of Gaussian, Inc.
  
 This software contains proprietary and confidential information,
 including trade secrets, belonging to Gaussian, Inc.
  
 This software is provided under written license and may be
 used, copied, transmitted, or stored only in accord with that
 written license.
  
 The following legend is applicable only to US Government
 contracts under FAR:
  
                    RESTRICTED RIGHTS LEGEND
  
 Use, reproduction and disclosure by the US Government is
 subject to restrictions as set forth in subparagraphs (a)
 and (c) of the Commercial Computer Software - Restricted
 Rights clause in FAR 52.227-19.
  
 Gaussian, Inc.
 340 Quinnipiac St., Bldg. 40, Wallingford CT 06492
  
  
 ---------------------------------------------------------------
 Warning -- This program may not be used in any manner that
 competes with the business of Gaussian, Inc. or will provide
 assistance to any competitor of Gaussian, Inc.  The licensee
 of this program is prohibited from giving any competitor of
 Gaussian, Inc. access to this program.  By using this program,
 the user acknowledges that Gaussian, Inc. is engaged in the
 business of creating and licensing software in the field of
 computational chemistry and represents and warrants to the
 licensee that it is not a competitor of Gaussian, Inc. and that
 it will not use this program in any manner prohibited above.
 ---------------------------------------------------------------
  

 Cite this work as:
 Gaussian 16, Revision C.01,
 M. J. Frisch, G. W. Trucks, H. B. Schlegel, G. E. Scuseria, 
 M. A. Robb, J. R. Cheeseman, G. Scalmani, V. Barone, 
 G. A. Petersson, H. Nakatsuji, X. Li, M. Caricato, A. V. Marenich, 
 J. Bloino, B. G. Janesko, R. Gomperts, B. Mennucci, H. P. Hratchian, 
 J. V. Ortiz, A. F. Izmaylov, J. L. Sonnenberg, D. Williams-Young, 
 F. Ding, F. Lipparini, F. Egidi, J. Goings, B. Peng, A. Petrone, 
 T. Henderson, D. Ranasinghe, V. G. Zakrzewski, J. Gao, N. Rega, 
 G. Zheng, W. Liang, M. Hada, M. Ehara, K. Toyota, R. Fukuda, 
 J. Hasegawa, M. Ishida, T. Nakajima, Y. Honda, O. Kitao, H. Nakai, 
 T. Vreven, K. Throssell, J. A. Montgomery, Jr., J. E. Peralta, 
 F. Ogliaro, M. J. Bearpark, J. J. Heyd, E. N. Brothers, K. N. Kudin, 
 V. N. Staroverov, T. A. Keith, R. Kobayashi, J. Normand, 
 K. Raghavachari, A. P. Rendell, J. C. Burant, S. S. Iyengar, 
 J. Tomasi, M. Cossi, J. M. Millam, M. Klene, C. Adamo, R. Cammi, 
 J. W. Ochterski, R. L. Martin, K. Morokuma, O. Farkas, 
 J. B. Foresman, and D. J. Fox, Gaussian, Inc., Wallingford CT, 2019.
 
 ******************************************
 Gaussian 16:  ES64L-G16RevC.01  3-Jul-2019
                17-Jul-2024 
 ******************************************
 %chk=b.chk
 %nprocshared=56
 Will use up to   56 processors via shared memory.
 %mem=96gb
 ----------------------------------------------------------------------
 # pbe1pbe em=gd3bj genecp g09default scf=(xqc,maxcycle=64) force guess
 =read nosymm
 ----------------------------------------------------------------------
 1/10=7,30=1,38=1,158=3,167=1/1,3;
 2/12=2,15=1,17=6,18=5,40=1/2;
 3/5=7,11=2,16=1,17=8,25=1,27=10,30=1,71=1,74=-13,75=-4,116=-2,124=41,158=3/1,2,3;
 4/5=1,60=-1/1;
 5/5=2,7=64,8=3,13=1,38=6,87=10/2,8;
 6/7=2,8=2,9=2,10=2,28=1,87=10/1;
 7/29=1,30=1,87=10/1,2,3,16;
 1/10=7,30=1,158=3,167=1/3;
 99//99;
 Using 2006 physical constants.
 ----------
 Title Card
 ----------
 Symbolic Z-matrix:
 Charge =  0 Multiplicity = 3
 6                     0.        0.64009   0.00013 
 6                    -1.19745   1.35942   0.00005 
 6                    -1.22554   2.75011  0. 
 6                     0.        3.42935   0.00001 
 6                     1.22555   2.75011   0.00005 
 6                     1.19746   1.35942   0.00009 
 1                    -2.14711   3.3224   -0.00005 
 1                     0.        4.51688  -0.00001 
 1                     2.14711   3.3224    0.00005 
 6                     3.64893   0.57356  -0.00002 
 6                     1.88364  -0.89727   0.00012 
 6                     4.16279  -0.73661  -0.00011 
 6                     4.51923   1.66223  -0.00005 
 6                     5.52843  -1.00174  -0.00021 
 6                     5.88966   1.40023  -0.00017 
 1                     4.16009   2.68503   0.00001 
 6                     6.3908    0.09418  -0.00024 
 1                     5.90955  -2.01907  -0.00025 
 1                     6.58878   2.23368  -0.0002 
 1                     7.4639   -0.07149  -0.00032 
 6                    -3.64892   0.57356  -0.00003 
 6                    -1.88363  -0.89727   0.00005 
 6                    -4.16278  -0.73661  -0.00007 
 6                    -4.51923   1.66223  -0.00005 
 6                    -5.52843  -1.00175  -0.00011 
 6                    -5.88966   1.40022  -0.0001 
 1                    -4.16009   2.68503  -0.00002 
 6                    -6.3908    0.09417  -0.00012 
 1                    -5.90954  -2.01908  -0.00011 
 1                    -6.58878   2.23367  -0.00011 
 1                    -7.4639   -0.0715   -0.00015 
 7                    -2.26718   0.43553   0.00002 
 7                    -3.06331  -1.58613  -0.00004 
 7                     2.26718   0.43554   0.0001 
 7                     3.06332  -1.58612  -0.00005 
 6                     3.17117  -3.02155  0. 
 1                     3.70449  -3.37316  -0.89104 
 1                     3.70408  -3.37315   0.8913 
 1                     2.16312  -3.43992  -0.00024 
 6                    -3.17116  -3.02155   0.00004 
 1                    -3.70401  -3.37315   0.89138 
 1                    -3.70454  -3.37318  -0.89096 
 1                    -2.16311  -3.43992  -0.00027 
 27                    0.       -1.16472   0.00004 
 

 GradGradGradGradGradGradGradGradGradGradGradGradGradGradGradGradGradGrad
 Berny optimization.
 Initialization pass.
 Trust Radius=3.00D-01 FncErr=1.00D-07 GrdErr=1.00D-07 EigMax=2.50D+02 EigMin=1.00D-04
 Number of steps in this run=      2 maximum allowed number of steps=      2.
 GradGradGradGradGradGradGradGradGradGradGradGradGradGradGradGradGradGrad

                          Input orientation:                          
 ---------------------------------------------------------------------
 Center     Atomic      Atomic             Coordinates (Angstroms)
 Number     Number       Type             X           Y           Z
 ---------------------------------------------------------------------
      1          6           0        0.000003    0.640092    0.000126
      2          6           0       -1.197450    1.359416    0.000049
      3          6           0       -1.225544    2.750112   -0.000004
      4          6           0        0.000002    3.429353    0.000015
      5          6           0        1.225548    2.750112    0.000047
      6          6           0        1.197455    1.359415    0.000095
      7          1           0       -2.147109    3.322401   -0.000048
      8          1           0        0.000001    4.516884   -0.000011
      9          1           0        2.147111    3.322401    0.000048
     10          6           0        3.648929    0.573564   -0.000021
     11          6           0        1.883641   -0.897266    0.000116
     12          6           0        4.162787   -0.736609   -0.000112
     13          6           0        4.519226    1.662230   -0.000050
     14          6           0        5.528432   -1.001741   -0.000209
     15          6           0        5.889658    1.400230   -0.000167
     16          1           0        4.160090    2.685031    0.000014
     17          6           0        6.390804    0.094180   -0.000239
     18          1           0        5.909550   -2.019074   -0.000251
     19          1           0        6.588781    2.233675   -0.000197
     20          1           0        7.463900   -0.071491   -0.000321
     21          6           0       -3.648925    0.573556   -0.000032
     22          6           0       -1.883635   -0.897269    0.000051
     23          6           0       -4.162783   -0.736614   -0.000069
     24          6           0       -4.519226    1.662226   -0.000048
     25          6           0       -5.528426   -1.001750   -0.000106
     26          6           0       -5.889656    1.400222   -0.000095
     27          1           0       -4.160090    2.685025   -0.000021
     28          6           0       -6.390800    0.094172   -0.000120
     29          1           0       -5.909544   -2.019082   -0.000112
     30          1           0       -6.588780    2.233666   -0.000110
     31          1           0       -7.463895   -0.071502   -0.000149
     32          7           0       -2.267176    0.435532    0.000019
     33          7           0       -3.063311   -1.586129   -0.000039
     34          7           0        2.267179    0.435536    0.000101
     35          7           0        3.063319   -1.586125   -0.000052
     36          6           0        3.171166   -3.021550   -0.000001
     37          1           0        3.704493   -3.373160   -0.891042
     38          1           0        3.704076   -3.373153    0.891300
     39          1           0        2.163122   -3.439921   -0.000239
     40          6           0       -3.171157   -3.021554    0.000038
     41          1           0       -3.704005   -3.373148    0.891379
     42          1           0       -3.704543   -3.373177   -0.890963
     43          1           0       -2.163113   -3.439922   -0.000266
     44         27           0        0.000001   -1.164716    0.000037
 ---------------------------------------------------------------------
                    Distance matrix (angstroms):
                    1          2          3          4          5
     1  C    0.000000
     2  C    1.396898   0.000000
     3  C    2.440113   1.390980   0.000000
     4  C    2.789261   2.391344   1.401189   0.000000
     5  C    2.440112   2.793735   2.451092   1.401189   0.000000
     6  C    1.396896   2.394905   2.793736   2.391346   1.390980
     7  H    3.435822   2.180633   1.084803   2.149773   3.420867
     8  H    3.876792   3.376906   2.150219   1.087531   2.150221
     9  H    3.435820   3.878067   3.420865   2.149771   1.084801
    10  C    3.649532   4.909680   5.338337   4.633594   3.257320
    11  C    2.431370   3.819128   4.792744   4.718869   3.706272
    12  C    4.384526   5.755472   6.418047   5.889313   4.559012
    13  C    4.633373   5.724691   5.846869   4.852433   3.468689
    14  C    5.767074   7.128292   7.726098   7.085064   5.708871
    15  C    5.938505   7.087226   7.242118   6.229397   4.855523
    16  H    4.635526   5.519103   5.386027   4.226151   2.935264
    17  C    6.414075   7.693012   8.066147   7.208726   5.808084
    18  H    6.480270   7.869158   8.582232   8.037917   6.684684
    19  H    6.778753   7.835159   7.831371   6.696390   5.388039
    20  H    7.497740   8.778752   9.136076   8.244130   6.846786
    21  C    3.649535   2.574355   3.257326   4.633599   5.338341
    22  C    2.431372   2.358703   3.706275   4.718871   4.792745
    23  C    4.384531   3.631328   4.559017   5.889318   6.418051
    24  C    4.633378   3.335549   3.468695   4.852439   5.846874
    25  C    5.767076   4.932794   5.708875   7.085067   7.726100
    26  C    5.938509   4.692383   4.855528   6.229402   7.242123
    27  H    4.635529   3.245685   2.935268   4.226156   5.386032
    28  C    6.414078   5.345253   5.808089   7.208730   8.066150
    29  H    6.480274   5.798110   6.684689   8.037921   8.582234
    30  H    6.778757   5.461753   5.388044   6.696396   7.831376
    31  H    7.497743   6.427742   6.846790   8.244134   9.136079
    32  N    2.276389   1.413462   2.538165   3.755404   4.190036
    33  N    3.786813   3.486786   4.709605   5.876984   6.098959
    34  N    2.276386   3.585696   4.190033   3.755400   2.538160
    35  N    3.786812   5.179804   6.098959   5.876983   4.709602
    36  C    4.843954   6.186895   7.255559   7.188214   6.090773
    37  H    5.533861   6.871708   7.911617   7.796885   6.665858
    38  H    5.533577   6.871426   7.911381   7.796707   6.665718
    39  H    4.617963   5.858932   7.056881   7.201806   6.260635
    40  C    4.843955   4.805041   6.090775   7.188215   7.255559
    41  H    5.533544   5.429038   6.665707   7.796680   7.911339
    42  H    5.533898   5.429259   6.665877   7.796917   7.911660
    43  H    4.617963   4.895524   6.260635   7.201805   7.056879
    44  Co   1.804807   2.793767   4.102175   4.594068   4.102175
                    6          7          8          9         10
     6  C    0.000000
     7  H    3.878069   0.000000
     8  H    3.376908   2.457005   0.000000
     9  H    2.180633   4.294221   2.457005   0.000000
    10  C    2.574351   6.414839   5.372564   3.132341   0.000000
    11  C    2.358699   5.835455   5.732462   4.227884   2.297734
    12  C    3.631323   7.502689   6.702833   4.531943   1.407339
    13  C    3.335545   6.869949   5.345320   2.895358   1.393777
    14  C    4.932790   8.809775   7.811451   5.489219   2.452370
    15  C    4.692380   8.263435   6.663452   4.207303   2.388356
    16  H    3.245684   6.339322   4.545550   2.111474   2.172460
    17  C    5.345250   9.127835   7.771916   5.332011   2.783467
    18  H    5.798105   9.666494   8.811442   6.533552   3.439793
    19  H    5.461751   8.803471   6.973167   4.573155   3.376196
    20  H    6.427739  10.192644   8.761448   6.307673   3.869122
    21  C    4.909682   3.132346   5.372569   6.414841   7.297853
    22  C    3.819128   4.227888   5.732464   5.835455   5.724736
    23  C    5.755475   4.531947   6.702837   7.502691   7.920821
    24  C    5.724696   2.895362   5.345324   6.869952   8.240385
    25  C    7.128294   5.489224   7.811454   8.809776   9.311576
    26  C    7.087229   4.207307   6.663456   8.263438   9.574339
    27  H    5.519106   2.111478   4.545555   6.339325   8.089440
    28  C    7.693014   5.332014   7.771919   9.127836  10.051168
    29  H    7.869160   6.533555   8.811445   9.666495   9.903848
    30  H    7.835163   4.573159   6.973172   8.803473  10.371433
    31  H    8.778754   6.307677   8.761452  10.192646  11.131530
    32  N    3.585698   2.889365   4.668782   5.274462   5.917715
    33  N    5.179803   4.993305   6.828664   7.158364   7.051130
    34  N    1.413458   5.274460   4.668779   2.889361   1.388626
    35  N    3.486783   7.158365   6.828663   4.993302   2.237676
    36  C    4.805038   8.278270   8.178281   6.426072   3.626720
    37  H    5.429239   8.936759   8.761849   6.931812   4.046435
    38  H    5.429051   8.936515   8.761694   6.931732   4.046488
    39  H    4.895523   8.019170   8.245595   6.762341   4.279682
    40  C    6.186894   6.426074   8.178281   8.278269   7.709633
    41  H    6.871380   6.931734   8.761669   8.936465   8.392661
    42  H    6.871754   6.931817   8.761878   8.936807   8.393098
    43  H    5.858929   6.762341   8.245594   8.019167   7.063136
    44  Co   2.793767   4.974364   5.681600   4.974364   4.041818
                   11         12         13         14         15
    11  C    0.000000
    12  C    2.284801   0.000000
    13  C    3.673872   2.425176   0.000000
    14  C    3.646288   1.391144   2.848726   0.000000
    15  C    4.618080   2.747393   1.395251   2.428981   0.000000
    16  H    4.244417   3.421641   1.084020   3.932511   2.154557
    17  C    4.614920   2.377872   2.441636   1.394535   1.398898
    18  H    4.179282   2.167002   3.935098   1.086378   3.419361
    19  H    5.651649   3.835106   2.146999   3.404740   1.087844
    20  H    5.641028   3.367452   3.417147   2.147417   2.155041
    21  C    5.724736   7.920819   8.240383   9.311575   9.574338
    22  C    3.767276   6.048555   6.895482   7.412803   8.105713
    23  C    6.048558   8.325570   9.007317   9.694841  10.277046
    24  C    6.895485   9.007317   9.038453  10.394814  10.412181
    25  C    7.412803   9.694838  10.394811  11.056857  11.667996
    26  C    8.105714  10.277045  10.412180  11.667997  11.779314
    27  H    7.025631   8.998770   8.739373  10.366277  10.131541
    28  C    8.333626  10.586236  11.022136  11.969508  12.349714
    29  H    7.873512  10.153648  11.059444  11.483130  12.284659
    30  H    9.032422  11.154314  11.122695  12.541718  12.506240
    31  H    9.383940  11.645690  12.107892  13.025587  13.434410
    32  N    4.359545   6.535926   6.896379   7.926995   8.213682
    33  N    4.994684   7.275862   8.249043   8.611594   9.437902
    34  N    1.386890   2.228733   2.564468   3.563921   3.748731
    35  N    1.366077   1.389426   3.559702   2.533434   4.111752
    36  C    2.484009   2.490837   4.873917   3.104245   5.190601
    37  H    3.199956   2.820495   5.178109   3.121533   5.324834
    38  H    3.199720   2.820708   5.178229   3.121964   5.325098
    39  H    2.557969   3.362522   5.619891   4.155723   6.108530
    40  C    5.483026   7.681647   9.004434   8.930985  10.082189
    41  H    6.176255   8.344609   9.683554   9.573735  10.752598
    42  H    6.176727   8.345057   9.683978   9.574183  10.753029
    43  H    4.779259   6.879310   8.407474   8.068741   9.395434
    44  Co   1.902532   4.184741   5.330574   5.530833   6.423940
                   16         17         18         19         20
    16  H    0.000000
    17  C    3.418859   0.000000
    18  H    5.018885   2.167359   0.000000
    19  H    2.470275   2.148636   4.306649   0.000000
    20  H    4.302740   1.085809   2.491803   2.465690   0.000000
    21  C    8.089440  10.051167   9.903846  10.371432  11.131530
    22  C    7.025631   8.333625   7.873511   9.032421   9.383939
    23  C    8.998771  10.586238  10.153650  11.154315  11.645693
    24  C    8.739375  11.022138  11.059446  11.122696  12.107894
    25  C   10.366277  11.969507  11.483128  12.541717  13.025587
    26  C   10.131542  12.349715  12.284659  12.506240  13.434411
    27  H    8.320180  10.864339  11.114234  10.758343  11.946361
    28  C   10.864338  12.781604  12.480562  13.154733  13.855691
    29  H   11.114234  12.480562  11.819094  13.202047  13.514515
    30  H   10.758343  13.154733  13.202047  13.177561  14.240490
    31  H   11.946360  13.855690  13.514514  14.240490  14.927795
    32  N    6.809552   8.664707   8.537209   9.036663   9.744276
    33  N    8.391682   9.602277   8.983300  10.380452  10.635615
    34  N    2.939956   4.137729   4.392263   4.680763   5.221396
    35  N    4.409725   3.727678   2.878971   5.198053   4.653948
    36  C    5.791635   4.480385   2.916112   6.268771   5.208687
    37  H    6.140296   4.475740   2.736665   6.367835   5.082081
    38  H    6.140353   4.476131   2.737245   6.368109   5.082542
    39  H    6.442276   5.510278   4.006811   7.195565   6.280491
    40  C    9.290441  10.056784   9.135875  11.084846  11.036635
    41  H    9.966948  10.710860   9.749306  11.754693  11.679819
    42  H    9.967356  10.711302   9.749757  11.755117  11.680261
    43  H    8.803292   9.255235   8.196749  10.430021  10.199299
    44  Co   5.668059   6.513615   5.970988   7.413574   7.543536
                   21         22         23         24         25
    21  C    0.000000
    22  C    2.297733   0.000000
    23  C    1.407337   2.284804   0.000000
    24  C    1.393781   3.673875   2.425177   0.000000
    25  C    2.452369   3.646288   1.391142   2.848727   0.000000
    26  C    2.388358   4.618082   2.747391   1.395251   2.428982
    27  H    2.172462   4.244418   3.421640   1.084019   3.932512
    28  C    2.783467   4.614921   2.377870   2.441635   1.394537
    29  H    3.439792   4.179283   2.167001   3.935099   1.086377
    30  H    3.376198   5.651650   3.835104   2.146997   3.404741
    31  H    3.869122   5.641029   3.367449   3.417146   2.147418
    32  N    1.388626   1.386889   2.228734   2.564471   3.563920
    33  N    2.237674   1.366076   1.389430   3.559705   2.533434
    34  N    5.917714   4.359544   6.535928   6.896381   7.926995
    35  N    7.051131   4.994684   7.275866   8.249047   8.611595
    36  C    7.709632   5.483026   7.681650   9.004437   8.930984
    37  H    8.393046   6.176670   8.345013   9.683932   9.574139
    38  H    8.392711   6.176312   8.344660   9.683607   9.573779
    39  H    7.063136   4.779259   6.879313   8.407477   8.068741
    40  C    3.626717   2.484008   2.490837   4.873918   3.104243
    41  H    4.046495   3.199717   2.820721   5.178245   3.121984
    42  H    4.046425   3.199958   2.820486   5.178100   3.121513
    43  H    4.279678   2.557966   3.362522   5.619891   4.155720
    44  Co   4.041812   1.902527   4.184739   5.330573   5.530828
                   26         27         28         29         30
    26  C    0.000000
    27  H    2.154558   0.000000
    28  C    1.398897   3.418858   0.000000
    29  H    3.419362   5.018885   2.167360   0.000000
    30  H    1.087843   2.470275   2.148634   4.306649   0.000000
    31  H    2.155041   4.302740   1.085809   2.491802   2.465690
    32  N    3.748732   2.939957   4.137729   4.392263   4.680764
    33  N    4.111754   4.409726   3.727680   2.878974   5.198054
    34  N    8.213683   6.809552   8.664707   8.537210   9.036664
    35  N    9.437904   8.391684   9.602279   8.983302  10.380454
    36  C   10.082190   9.290442  10.056784   9.135876  11.084847
    37  H   10.752984   9.967306  10.711259   9.749717  11.755072
    38  H   10.752646   9.967000  10.710905   9.749349  11.754740
    39  H    9.395436   8.803293   9.255236   8.196750  10.430023
    40  C    5.190601   5.791634   4.480385   2.916113   6.268770
    41  H    5.325116   6.140364   4.476153   2.737271   6.368127
    42  H    5.324820   6.140286   4.475722   2.736644   6.367820
    43  H    6.108528   6.442274   5.510277   4.006810   7.195563
    44  Co   6.423937   5.668056   6.513611   5.970985   7.413571
                   31         32         33         34         35
    31  H    0.000000
    32  N    5.221396   0.000000
    33  N    4.653949   2.172773   0.000000
    34  N    9.744276   4.534355   5.700987   0.000000
    35  N   10.635616   5.700989   6.126630   2.172775   0.000000
    36  C   11.036635   6.444142   6.397588   3.573323   1.439471
    37  H   11.680220   7.138694   7.056241   4.167274   2.097251
    38  H   11.679861   7.138369   7.055881   4.167135   2.097271
    39  H   10.199299   5.886142   5.545461   3.876854   2.060805
    40  C    5.208686   3.573320   1.439470   6.444142   6.397589
    41  H    5.082565   4.167138   2.097273   7.138312   7.055833
    42  H    5.082060   4.167270   2.097251   7.138751   7.056291
    43  H    6.280489   3.876850   2.060801   5.886142   5.545463
    44  Co   7.543531   2.775046   3.092162   2.775050   3.092168
                   36         37         38         39         40
    36  C    0.000000
    37  H    1.096368   0.000000
    38  H    1.096373   1.782342   0.000000
    39  H    1.091415   1.781520   1.781527   0.000000
    40  C    6.342323   6.942061   6.941671   5.350660   0.000000
    41  H    6.941624   7.619899   7.408081   5.934864   1.096374
    42  H    6.942105   7.409036   7.619980   5.935262   1.096367
    43  H    5.350660   5.935212   5.934918   4.326235   1.091414
    44  Co   3.674795   4.403920   4.403603   3.139371   3.674791
                   41         42         43         44
    41  H    0.000000
    42  H    1.782342   0.000000
    43  H    1.781527   1.781517   0.000000
    44  Co   4.403558   4.403956   3.139367   0.000000
 Symmetry turned off by external request.
 Stoichiometry    C22H17CoN4(3)
 Framework group  C1[X(C22H17CoN4)]
 Deg. of freedom   126
 Full point group                 C1      NOp   1
 Rotational constants (GHZ):           0.4709230           0.1019341           0.0838851
 General basis read from cards:  (5D, 7F)
 ======================================================================================================
                                       Pseudopotential Parameters
 ======================================================================================================
  Center     Atomic      Valence      Angular      Power
  Number     Number     Electrons     Momentum     of R      Exponent        Coefficient   SO-Coeffient
 ======================================================================================================
    1          6
                                   No pseudopotential on this center.
    2          6
                                   No pseudopotential on this center.
    3          6
                                   No pseudopotential on this center.
    4          6
                                   No pseudopotential on this center.
    5          6
                                   No pseudopotential on this center.
    6          6
                                   No pseudopotential on this center.
    7          1
                                   No pseudopotential on this center.
    8          1
                                   No pseudopotential on this center.
    9          1
                                   No pseudopotential on this center.
   10          6
                                   No pseudopotential on this center.
   11          6
                                   No pseudopotential on this center.
   12          6
                                   No pseudopotential on this center.
   13          6
                                   No pseudopotential on this center.
   14          6
                                   No pseudopotential on this center.
   15          6
                                   No pseudopotential on this center.
   16          1
                                   No pseudopotential on this center.
   17          6
                                   No pseudopotential on this center.
   18          1
                                   No pseudopotential on this center.
   19          1
                                   No pseudopotential on this center.
   20          1
                                   No pseudopotential on this center.
   21          6
                                   No pseudopotential on this center.
   22          6
                                   No pseudopotential on this center.
   23          6
                                   No pseudopotential on this center.
   24          6
                                   No pseudopotential on this center.
   25          6
                                   No pseudopotential on this center.
   26          6
                                   No pseudopotential on this center.
   27          1
                                   No pseudopotential on this center.
   28          6
                                   No pseudopotential on this center.
   29          1
                                   No pseudopotential on this center.
   30          1
                                   No pseudopotential on this center.
   31          1
                                   No pseudopotential on this center.
   32          7
                                   No pseudopotential on this center.
   33          7
                                   No pseudopotential on this center.
   34          7
                                   No pseudopotential on this center.
   35          7
                                   No pseudopotential on this center.
   36          6
                                   No pseudopotential on this center.
   37          1
                                   No pseudopotential on this center.
   38          1
                                   No pseudopotential on this center.
   39          1
                                   No pseudopotential on this center.
   40          6
                                   No pseudopotential on this center.
   41          1
                                   No pseudopotential on this center.
   42          1
                                   No pseudopotential on this center.
   43          1
                                   No pseudopotential on this center.
   44         27           17
                                      F and up 
                                                     2        1.0000000        0.00000000    0.00000000
                                      S - F
                                                     2       23.6600000      283.96056600    0.00000000
                                                     2       10.6100000       47.15684600    0.00000000
                                      P - F
                                                     2       25.0400000      182.21223600    0.00000000
                                                     2       10.4400000       35.23335200    0.00000000
                                      D - F
                                                     2       29.5400000      -26.47533300    0.00000000
                                                     2       10.1800000       -1.82578700    0.00000000
 ======================================================================================================
   441 basis functions,   871 primitive gaussians,   473 cartesian basis functions
    98 alpha electrons       96 beta electrons
       nuclear repulsion energy      2503.1367429063 Hartrees.
 NAtoms=   44 NActive=   44 NUniq=   44 SFac= 1.00D+00 NAtFMM=   60 NAOKFM=F Big=F
 Integral buffers will be    131072 words long.
 Raffenetti 2 integral format.
 Two-electron integral symmetry is turned off.
 Nuclear repulsion after empirical dispersion term =     2503.0775259606 Hartrees.
 One-electron integrals computed using PRISM.
   1 Symmetry operations used in ECPInt.
 ECPInt:  NShTT=   11781 NPrTT=   71406 LenC2=    9568 LenP2D=   32152.
 LDataN:  DoStor=T MaxTD1= 6 Len=  172
 NBasis=   441 RedAO= T EigKep=  3.59D-04  NBF=   441
 NBsUse=   441 1.00D-06 EigRej= -1.00D+00 NBFU=   441
 Initial guess from the checkpoint file:  "b.chk"
 B after Tr=     0.000000   -0.001319    0.000003
         Rot=    1.000000    0.000001    0.000000   -0.000000 Ang=   0.00 deg.
 Initial guess <Sx>= 0.0000 <Sy>= 0.0000 <Sz>= 1.0000 <S**2>= 2.1054 S= 1.0347
 Requested convergence on RMS density matrix=1.00D-08 within  64 cycles.
 Requested convergence on MAX density matrix=1.00D-06.
 Requested convergence on             energy=1.00D-06.
 No special actions if energy rises.
 EnCoef did     2 forward-backward iterations
 Restarting incremental Fock formation.
 SCF Done:  E(UPBE1PBE) =  -1212.13543848     A.U. after   27 cycles
            NFock= 27  Conv=0.26D-09     -V/T= 2.0552
 <Sx>= 0.0000 <Sy>= 0.0000 <Sz>= 1.0000 <S**2>= 2.1310 S= 1.0430
 <L.S>=  0.00000000000    
 Annihilation of the first spin contaminant:
 S**2 before annihilation     2.1310,   after     2.0030
 QCSCF skips out because SCF is already converged.

 **********************************************************************

            Population analysis using the SCF Density.

 **********************************************************************

 Alpha  occ. eigenvalues --  -14.45007 -14.45007 -14.44524 -14.44523 -10.27245
 Alpha  occ. eigenvalues --  -10.27245 -10.27206 -10.27206 -10.27170 -10.27170
 Alpha  occ. eigenvalues --  -10.26953 -10.26953 -10.26211 -10.26211 -10.23695
 Alpha  occ. eigenvalues --  -10.23695 -10.23538 -10.23538 -10.23040 -10.23040
 Alpha  occ. eigenvalues --  -10.22952 -10.22952 -10.22621 -10.22307 -10.22304
 Alpha  occ. eigenvalues --  -10.19665  -3.93737  -2.46704  -2.43631  -2.42704
 Alpha  occ. eigenvalues --   -1.06032  -1.05935  -0.96249  -0.95725  -0.87981
 Alpha  occ. eigenvalues --   -0.87569  -0.85774  -0.79856  -0.78830  -0.77579
 Alpha  occ. eigenvalues --   -0.77458  -0.75740  -0.75062  -0.72884  -0.72881
 Alpha  occ. eigenvalues --   -0.66505  -0.65069  -0.64271  -0.63557  -0.62944
 Alpha  occ. eigenvalues --   -0.61157  -0.58776  -0.58027  -0.56105  -0.53797
 Alpha  occ. eigenvalues --   -0.52979  -0.51945  -0.49641  -0.49550  -0.49469
 Alpha  occ. eigenvalues --   -0.47984  -0.47331  -0.46916  -0.46808  -0.45775
 Alpha  occ. eigenvalues --   -0.45717  -0.44966  -0.44762  -0.44626  -0.43901
 Alpha  occ. eigenvalues --   -0.42127  -0.42038  -0.41693  -0.39293  -0.38904
 Alpha  occ. eigenvalues --   -0.38626  -0.38163  -0.37612  -0.37196  -0.36653
 Alpha  occ. eigenvalues --   -0.36083  -0.34763  -0.34637  -0.33602  -0.32337
 Alpha  occ. eigenvalues --   -0.31740  -0.31219  -0.30139  -0.27346  -0.27003
 Alpha  occ. eigenvalues --   -0.26508  -0.26034  -0.24615  -0.23728  -0.22942
 Alpha  occ. eigenvalues --   -0.20932  -0.20866  -0.09710
 Alpha virt. eigenvalues --   -0.05625  -0.01966  -0.00001   0.00305   0.00310
 Alpha virt. eigenvalues --    0.02288   0.03029   0.03728   0.04631   0.05665
 Alpha virt. eigenvalues --    0.06577   0.07959   0.08008   0.09783   0.10220
 Alpha virt. eigenvalues --    0.12446   0.12916   0.13851   0.13927   0.15224
 Alpha virt. eigenvalues --    0.15251   0.15448   0.15821   0.16583   0.16640
 Alpha virt. eigenvalues --    0.16968   0.17717   0.17948   0.18333   0.18334
 Alpha virt. eigenvalues --    0.19292   0.19637   0.19998   0.20244   0.20974
 Alpha virt. eigenvalues --    0.22055   0.23302   0.23632   0.24327   0.25232
 Alpha virt. eigenvalues --    0.25909   0.25937   0.26555   0.27405   0.27516
 Alpha virt. eigenvalues --    0.28047   0.28224   0.29636   0.30980   0.31448
 Alpha virt. eigenvalues --    0.32651   0.33560   0.34512   0.34795   0.36672
 Alpha virt. eigenvalues --    0.37902   0.38007   0.39317   0.40044   0.41286
 Alpha virt. eigenvalues --    0.42088   0.45170   0.45398   0.46053   0.46937
 Alpha virt. eigenvalues --    0.48705   0.50456   0.51185   0.51641   0.53274
 Alpha virt. eigenvalues --    0.53984   0.54185   0.56272   0.56362   0.56486
 Alpha virt. eigenvalues --    0.56564   0.57655   0.57954   0.58456   0.58648
 Alpha virt. eigenvalues --    0.58791   0.59995   0.60768   0.61062   0.61554
 Alpha virt. eigenvalues --    0.61594   0.61729   0.62951   0.63036   0.63166
 Alpha virt. eigenvalues --    0.63583   0.63814   0.64069   0.64112   0.64544
 Alpha virt. eigenvalues --    0.65096   0.65824   0.66151   0.66856   0.67436
 Alpha virt. eigenvalues --    0.67830   0.67890   0.68729   0.71042   0.71709
 Alpha virt. eigenvalues --    0.71849   0.73986   0.75588   0.76600   0.76984
 Alpha virt. eigenvalues --    0.77732   0.78218   0.80242   0.80638   0.81430
 Alpha virt. eigenvalues --    0.81912   0.82538   0.83389   0.83903   0.84341
 Alpha virt. eigenvalues --    0.84672   0.85309   0.85686   0.86998   0.87234
 Alpha virt. eigenvalues --    0.87279   0.87687   0.89441   0.90974   0.91154
 Alpha virt. eigenvalues --    0.91244   0.91478   0.91713   0.92987   0.93107
 Alpha virt. eigenvalues --    0.93441   0.94366   0.95533   0.95700   0.96478
 Alpha virt. eigenvalues --    0.97381   0.97526   0.98310   0.98394   0.98498
 Alpha virt. eigenvalues --    0.99965   1.00342   1.01585   1.02288   1.03354
 Alpha virt. eigenvalues --    1.04050   1.04801   1.05931   1.07393   1.07479
 Alpha virt. eigenvalues --    1.08727   1.09054   1.10193   1.10868   1.14043
 Alpha virt. eigenvalues --    1.15285   1.16162   1.16792   1.18057   1.18576
 Alpha virt. eigenvalues --    1.18976   1.21584   1.23731   1.23744   1.24439
 Alpha virt. eigenvalues --    1.25099   1.26470   1.27440   1.29036   1.29199
 Alpha virt. eigenvalues --    1.30126   1.30734   1.31160   1.33284   1.33571
 Alpha virt. eigenvalues --    1.34088   1.36952   1.37228   1.38254   1.39012
 Alpha virt. eigenvalues --    1.40658   1.41191   1.41854   1.42517   1.45110
 Alpha virt. eigenvalues --    1.45585   1.45845   1.46720   1.47222   1.48279
 Alpha virt. eigenvalues --    1.48929   1.49487   1.49589   1.50380   1.50396
 Alpha virt. eigenvalues --    1.51279   1.53112   1.55661   1.57782   1.57914
 Alpha virt. eigenvalues --    1.60139   1.60534   1.63616   1.65391   1.66971
 Alpha virt. eigenvalues --    1.68466   1.71802   1.73841   1.74758   1.77833
 Alpha virt. eigenvalues --    1.79793   1.79971   1.80262   1.81676   1.83446
 Alpha virt. eigenvalues --    1.84145   1.85691   1.86610   1.86950   1.88031
 Alpha virt. eigenvalues --    1.88773   1.89756   1.91244   1.91651   1.93527
 Alpha virt. eigenvalues --    1.94666   1.95981   1.96584   1.96628   1.97873
 Alpha virt. eigenvalues --    1.97909   1.98945   1.99054   1.99951   1.99960
 Alpha virt. eigenvalues --    2.00222   2.00917   2.02102   2.03683   2.05126
 Alpha virt. eigenvalues --    2.09021   2.09627   2.10960   2.13063   2.14130
 Alpha virt. eigenvalues --    2.14850   2.15004   2.15314   2.16657   2.16819
 Alpha virt. eigenvalues --    2.18294   2.18816   2.19214   2.19280   2.20288
 Alpha virt. eigenvalues --    2.21489   2.22021   2.24427   2.24632   2.24721
 Alpha virt. eigenvalues --    2.25237   2.26230   2.27781   2.27881   2.28011
 Alpha virt. eigenvalues --    2.28095   2.28196   2.28553   2.29984   2.32377
 Alpha virt. eigenvalues --    2.36006   2.37206   2.40141   2.40550   2.41044
 Alpha virt. eigenvalues --    2.41744   2.43048   2.46514   2.46530   2.47149
 Alpha virt. eigenvalues --    2.50119   2.52623   2.56396   2.57392   2.57418
 Alpha virt. eigenvalues --    2.58486   2.58590   2.61331   2.62960   2.64009
 Alpha virt. eigenvalues --    2.65995   2.67113   2.67975   2.68847   2.70910
 Alpha virt. eigenvalues --    2.72255   2.72557   2.72606   2.75166   2.75277
 Alpha virt. eigenvalues --    2.75328   2.77589   2.77919   2.78481   2.84048
 Alpha virt. eigenvalues --    2.86052   2.86840   2.88768   2.90802   2.94107
 Alpha virt. eigenvalues --    2.95305   2.96450   2.98079   3.01021   3.03687
 Alpha virt. eigenvalues --    3.06142   3.08782   3.16105   3.19299   3.20346
 Alpha virt. eigenvalues --    3.25182   3.39670   3.42703   3.46042   3.48643
 Alpha virt. eigenvalues --    3.51615   3.60909   5.55347   5.56190   5.57828
 Alpha virt. eigenvalues --    5.60461   5.61139   5.63100   5.64340  45.69704
 Alpha virt. eigenvalues --   45.95831  45.96106  63.00461
  Beta  occ. eigenvalues --  -14.44871 -14.44871 -14.44494 -14.44493 -10.27215
  Beta  occ. eigenvalues --  -10.27214 -10.27178 -10.27178 -10.27048 -10.27047
  Beta  occ. eigenvalues --  -10.26988 -10.26987 -10.26040 -10.26040 -10.23640
  Beta  occ. eigenvalues --  -10.23640 -10.23508 -10.23508 -10.23040 -10.23040
  Beta  occ. eigenvalues --  -10.22924 -10.22924 -10.22452 -10.22419 -10.22385
  Beta  occ. eigenvalues --  -10.19934  -3.87368  -2.39201  -2.38367  -2.34939
  Beta  occ. eigenvalues --   -1.05823  -1.05726  -0.96032  -0.95500  -0.87913
  Beta  occ. eigenvalues --   -0.87493  -0.85698  -0.79745  -0.78758  -0.77512
  Beta  occ. eigenvalues --   -0.77379  -0.75590  -0.74870  -0.72881  -0.72879
  Beta  occ. eigenvalues --   -0.66515  -0.64772  -0.64054  -0.63559  -0.62855
  Beta  occ. eigenvalues --   -0.61055  -0.58727  -0.57928  -0.56060  -0.53735
  Beta  occ. eigenvalues --   -0.52937  -0.51860  -0.49485  -0.49171  -0.49102
  Beta  occ. eigenvalues --   -0.47873  -0.47296  -0.46853  -0.46775  -0.45732
  Beta  occ. eigenvalues --   -0.45697  -0.44908  -0.44740  -0.44208  -0.43595
  Beta  occ. eigenvalues --   -0.42130  -0.42005  -0.41684  -0.39307  -0.38598
  Beta  occ. eigenvalues --   -0.38387  -0.37686  -0.37182  -0.36838  -0.36202
  Beta  occ. eigenvalues --   -0.36064  -0.34611  -0.34202  -0.32952  -0.31387
  Beta  occ. eigenvalues --   -0.31303  -0.29564  -0.26262  -0.26115  -0.25266
  Beta  occ. eigenvalues --   -0.24864  -0.23968  -0.22132  -0.21126  -0.20684
  Beta  occ. eigenvalues --   -0.20037
  Beta virt. eigenvalues --   -0.04666  -0.04150  -0.01572  -0.00250   0.00217
  Beta virt. eigenvalues --    0.01267   0.01771   0.02437   0.03782   0.05737
  Beta virt. eigenvalues --    0.06033   0.06116   0.08201   0.09108   0.09270
  Beta virt. eigenvalues --    0.10248   0.10662   0.12581   0.12991   0.14059
  Beta virt. eigenvalues --    0.14142   0.15386   0.15607   0.15953   0.16042
  Beta virt. eigenvalues --    0.16729   0.17016   0.17194   0.17787   0.18063
  Beta virt. eigenvalues --    0.18785   0.19161   0.19444   0.20068   0.20501
  Beta virt. eigenvalues --    0.21130   0.22214   0.23373   0.23384   0.23865
  Beta virt. eigenvalues --    0.24398   0.25410   0.25921   0.25998   0.27448
  Beta virt. eigenvalues --    0.27585   0.27874   0.28507   0.29350   0.30207
  Beta virt. eigenvalues --    0.31316   0.31671   0.32776   0.33888   0.34751
  Beta virt. eigenvalues --    0.34856   0.36869   0.38083   0.38270   0.39499
  Beta virt. eigenvalues --    0.40118   0.41358   0.42634   0.45404   0.45810
  Beta virt. eigenvalues --    0.46414   0.47271   0.49044   0.50675   0.51570
  Beta virt. eigenvalues --    0.51707   0.53351   0.54083   0.54316   0.56346
  Beta virt. eigenvalues --    0.56461   0.56611   0.56759   0.57736   0.58136
  Beta virt. eigenvalues --    0.58546   0.58841   0.58953   0.60063   0.60845
  Beta virt. eigenvalues --    0.61041   0.61577   0.61864   0.61870   0.63035
  Beta virt. eigenvalues --    0.63185   0.63228   0.63739   0.63872   0.64124
  Beta virt. eigenvalues --    0.64178   0.64630   0.65043   0.66011   0.66210
  Beta virt. eigenvalues --    0.67383   0.67809   0.67972   0.68055   0.68938
  Beta virt. eigenvalues --    0.71033   0.71920   0.72241   0.74440   0.75723
  Beta virt. eigenvalues --    0.76673   0.77075   0.78124   0.78696   0.80722
  Beta virt. eigenvalues --    0.80768   0.81623   0.82132   0.82703   0.83675
  Beta virt. eigenvalues --    0.84276   0.84430   0.84810   0.85568   0.85846
  Beta virt. eigenvalues --    0.87021   0.87297   0.87635   0.87721   0.89517
  Beta virt. eigenvalues --    0.91090   0.91296   0.91437   0.91660   0.91825
  Beta virt. eigenvalues --    0.93173   0.93470   0.93825   0.94441   0.95779
  Beta virt. eigenvalues --    0.96639   0.96975   0.97413   0.97584   0.98364
  Beta virt. eigenvalues --    0.98531   0.98804   1.00090   1.00360   1.01713
  Beta virt. eigenvalues --    1.02355   1.03406   1.04119   1.04900   1.05988
  Beta virt. eigenvalues --    1.07484   1.08756   1.09100   1.10309   1.11134
  Beta virt. eigenvalues --    1.14161   1.14982   1.15396   1.16241   1.16825
  Beta virt. eigenvalues --    1.18135   1.18615   1.19029   1.21696   1.23904
  Beta virt. eigenvalues --    1.23973   1.24522   1.25155   1.26679   1.27662
  Beta virt. eigenvalues --    1.29352   1.29432   1.30334   1.31086   1.31454
  Beta virt. eigenvalues --    1.33632   1.33860   1.34643   1.37242   1.37527
  Beta virt. eigenvalues --    1.38444   1.39204   1.40936   1.41561   1.41962
  Beta virt. eigenvalues --    1.42976   1.45199   1.45685   1.45975   1.46867
  Beta virt. eigenvalues --    1.47296   1.48375   1.49264   1.49560   1.49796
  Beta virt. eigenvalues --    1.50514   1.50536   1.51613   1.53464   1.56636
  Beta virt. eigenvalues --    1.57899   1.58285   1.60264   1.61344   1.64581
  Beta virt. eigenvalues --    1.65810   1.67274   1.68884   1.71974   1.74005
  Beta virt. eigenvalues --    1.74906   1.77889   1.80015   1.80299   1.80496
  Beta virt. eigenvalues --    1.81863   1.83520   1.84220   1.85841   1.86769
  Beta virt. eigenvalues --    1.87042   1.88095   1.88973   1.89953   1.91323
  Beta virt. eigenvalues --    1.91681   1.93588   1.94724   1.96025   1.96667
  Beta virt. eigenvalues --    1.96720   1.98061   1.98063   1.99050   1.99209
  Beta virt. eigenvalues --    2.00131   2.00172   2.00280   2.00953   2.02193
  Beta virt. eigenvalues --    2.03922   2.05293   2.09040   2.09690   2.11262
  Beta virt. eigenvalues --    2.13220   2.14422   2.15100   2.15119   2.15528
  Beta virt. eigenvalues --    2.16774   2.16943   2.18508   2.18940   2.19424
  Beta virt. eigenvalues --    2.19490   2.20408   2.21621   2.22144   2.24660
  Beta virt. eigenvalues --    2.24752   2.25191   2.25428   2.26416   2.27913
  Beta virt. eigenvalues --    2.28005   2.28214   2.28425   2.28433   2.28563
  Beta virt. eigenvalues --    2.30227   2.32557   2.36345   2.37620   2.40301
  Beta virt. eigenvalues --    2.40725   2.41153   2.43451   2.44491   2.46580
  Beta virt. eigenvalues --    2.47094   2.49682   2.50240   2.52738   2.56753
  Beta virt. eigenvalues --    2.57627   2.57760   2.58640   2.58850   2.61425
  Beta virt. eigenvalues --    2.63265   2.64161   2.66251   2.67228   2.68023
  Beta virt. eigenvalues --    2.68992   2.71296   2.72378   2.72736   2.72775
  Beta virt. eigenvalues --    2.75304   2.75424   2.75479   2.77826   2.77922
  Beta virt. eigenvalues --    2.78709   2.84259   2.86100   2.87199   2.88853
  Beta virt. eigenvalues --    2.90991   2.94223   2.95721   2.96912   2.98257
  Beta virt. eigenvalues --    3.03021   3.04041   3.06375   3.09401   3.16144
  Beta virt. eigenvalues --    3.19638   3.20744   3.25142   3.40814   3.42798
  Beta virt. eigenvalues --    3.46055   3.48649   3.52168   3.62828   5.61123
  Beta virt. eigenvalues --    5.62822   5.62961   5.64421   5.65041   5.67135
  Beta virt. eigenvalues --    5.68981  45.79716  46.01117  46.03817  63.06108
          Condensed to atoms (all electrons):
               1          2          3          4          5          6
     1  C    5.267140   0.490022  -0.077725  -0.040059  -0.077725   0.490022
     2  C    0.490022   4.640506   0.540432  -0.000032  -0.040847  -0.013037
     3  C   -0.077725   0.540432   5.032692   0.519514  -0.047355  -0.040847
     4  C   -0.040059  -0.000032   0.519514   4.909262   0.519515  -0.000031
     5  C   -0.077725  -0.040847  -0.047355   0.519515   5.032692   0.540432
     6  C    0.490022  -0.013037  -0.040847  -0.000031   0.540432   4.640506
     7  H    0.004388  -0.036225   0.352694  -0.040114   0.004334   0.000352
     8  H    0.001002   0.002586  -0.035242   0.366278  -0.035242   0.002586
     9  H    0.004388   0.000352   0.004334  -0.040114   0.352694  -0.036225
    10  C    0.008100   0.000003   0.000001   0.000107  -0.006525  -0.041214
    11  C    0.017626   0.003405  -0.000146   0.000034   0.003602  -0.070102
    12  C   -0.000907  -0.000001   0.000000  -0.000000   0.000150   0.007131
    13  C    0.000162   0.000003  -0.000002   0.000074   0.001486  -0.004926
    14  C   -0.000001  -0.000000   0.000000  -0.000000   0.000002  -0.000026
    15  C    0.000002  -0.000000   0.000000  -0.000001   0.000083   0.000063
    16  H   -0.000038   0.000001   0.000000   0.000122  -0.000129   0.000500
    17  C    0.000000   0.000000  -0.000000   0.000000  -0.000001  -0.000005
    18  H   -0.000000   0.000000   0.000000   0.000000  -0.000000   0.000002
    19  H   -0.000000   0.000000  -0.000000   0.000000   0.000002  -0.000002
    20  H   -0.000000  -0.000000   0.000000  -0.000000  -0.000000  -0.000000
    21  C    0.008100  -0.041214  -0.006525   0.000107   0.000001   0.000003
    22  C    0.017627  -0.070101   0.003602   0.000034  -0.000146   0.003405
    23  C   -0.000907   0.007131   0.000150  -0.000000   0.000000  -0.000001
    24  C    0.000162  -0.004925   0.001486   0.000074  -0.000002   0.000003
    25  C   -0.000001  -0.000026   0.000002  -0.000000   0.000000  -0.000000
    26  C    0.000002   0.000063   0.000083  -0.000001   0.000000  -0.000000
    27  H   -0.000038   0.000500  -0.000129   0.000122   0.000000   0.000001
    28  C    0.000000  -0.000005  -0.000001   0.000000  -0.000000   0.000000
    29  H   -0.000000   0.000002  -0.000000   0.000000   0.000000   0.000000
    30  H   -0.000000  -0.000002   0.000002   0.000000  -0.000000   0.000000
    31  H   -0.000000  -0.000000  -0.000000  -0.000000   0.000000  -0.000000
    32  N   -0.034398   0.251187  -0.064052   0.003695   0.001054   0.007047
    33  N    0.001170   0.006495  -0.000153   0.000001   0.000000  -0.000054
    34  N   -0.034398   0.007047   0.001054   0.003695  -0.064052   0.251188
    35  N    0.001170  -0.000054   0.000000   0.000001  -0.000153   0.006495
    36  C   -0.000017   0.000000  -0.000000  -0.000000   0.000002  -0.000048
    37  H   -0.000000  -0.000000   0.000000   0.000000  -0.000000   0.000004
    38  H   -0.000000  -0.000000   0.000000   0.000000  -0.000000   0.000004
    39  H   -0.000023   0.000001   0.000000  -0.000000  -0.000000  -0.000016
    40  C   -0.000017  -0.000048   0.000002  -0.000000  -0.000000   0.000000
    41  H   -0.000000   0.000004  -0.000000   0.000000   0.000000  -0.000000
    42  H   -0.000000   0.000004  -0.000000   0.000000   0.000000  -0.000000
    43  H   -0.000023  -0.000016  -0.000000  -0.000000   0.000000   0.000001
    44  Co   0.262899  -0.070823   0.002834   0.002425   0.002834  -0.070824
               7          8          9         10         11         12
     1  C    0.004388   0.001002   0.004388   0.008100   0.017626  -0.000907
     2  C   -0.036225   0.002586   0.000352   0.000003   0.003405  -0.000001
     3  C    0.352694  -0.035242   0.004334   0.000001  -0.000146   0.000000
     4  C   -0.040114   0.366278  -0.040114   0.000107   0.000034  -0.000000
     5  C    0.004334  -0.035242   0.352694  -0.006525   0.003602   0.000150
     6  C    0.000352   0.002586  -0.036225  -0.041214  -0.070102   0.007131
     7  H    0.543496  -0.004279  -0.000130  -0.000000  -0.000000   0.000000
     8  H   -0.004279   0.538807  -0.004279  -0.000002   0.000001  -0.000000
     9  H   -0.000130  -0.004279   0.543496   0.000307  -0.000143  -0.000031
    10  C   -0.000000  -0.000002   0.000307   4.639601  -0.074935   0.520760
    11  C   -0.000000   0.000001  -0.000143  -0.074935   4.816435  -0.056255
    12  C    0.000000  -0.000000  -0.000031   0.520760  -0.056255   4.658699
    13  C   -0.000000   0.000002   0.000249   0.528741   0.004911  -0.055921
    14  C   -0.000000   0.000000   0.000000  -0.049354   0.005752   0.530359
    15  C   -0.000000   0.000000   0.000125  -0.007219  -0.000084  -0.038296
    16  H   -0.000000  -0.000010   0.006241  -0.034759  -0.000152   0.003768
    17  C   -0.000000  -0.000000   0.000001  -0.039360  -0.000083  -0.007188
    18  H    0.000000  -0.000000  -0.000000   0.003804  -0.000212  -0.038481
    19  H    0.000000   0.000000  -0.000009   0.002018   0.000003   0.000929
    20  H   -0.000000  -0.000000   0.000000   0.000906   0.000003   0.002197
    21  C    0.000307  -0.000002  -0.000000  -0.000000  -0.000009   0.000000
    22  C   -0.000143   0.000001  -0.000000  -0.000009  -0.018493  -0.000003
    23  C   -0.000031  -0.000000   0.000000   0.000000  -0.000003  -0.000000
    24  C    0.000249   0.000002  -0.000000   0.000000   0.000000   0.000000
    25  C    0.000000   0.000000  -0.000000   0.000000   0.000000   0.000000
    26  C    0.000125   0.000000  -0.000000  -0.000000  -0.000000  -0.000000
    27  H    0.006241  -0.000010  -0.000000   0.000000   0.000000  -0.000000
    28  C    0.000001  -0.000000  -0.000000   0.000000  -0.000000  -0.000000
    29  H   -0.000000  -0.000000   0.000000   0.000000   0.000000  -0.000000
    30  H   -0.000009   0.000000   0.000000   0.000000   0.000000   0.000000
    31  H    0.000000  -0.000000  -0.000000   0.000000   0.000000   0.000000
    32  N   -0.004764  -0.000093   0.000007  -0.000000   0.000425   0.000000
    33  N    0.000002  -0.000000  -0.000000  -0.000000   0.000024   0.000000
    34  N    0.000007  -0.000093  -0.004764   0.267864   0.354573  -0.041813
    35  N   -0.000000  -0.000000   0.000002  -0.043632   0.317263   0.274732
    36  C   -0.000000   0.000000   0.000000   0.005889  -0.043388  -0.047774
    37  H    0.000000  -0.000000  -0.000000  -0.000144   0.000658  -0.001444
    38  H    0.000000  -0.000000  -0.000000  -0.000144   0.000653  -0.001440
    39  H    0.000000   0.000000   0.000000   0.000014  -0.000192   0.002683
    40  C    0.000000   0.000000  -0.000000   0.000000   0.000020   0.000000
    41  H   -0.000000  -0.000000   0.000000  -0.000000  -0.000000  -0.000000
    42  H   -0.000000  -0.000000   0.000000  -0.000000  -0.000000  -0.000000
    43  H    0.000000   0.000000   0.000000   0.000000  -0.000001  -0.000000
    44  Co  -0.000412   0.000194  -0.000412   0.007309   0.359113   0.005439
              13         14         15         16         17         18
     1  C    0.000162  -0.000001   0.000002  -0.000038   0.000000  -0.000000
     2  C    0.000003  -0.000000  -0.000000   0.000001   0.000000   0.000000
     3  C   -0.000002   0.000000   0.000000   0.000000  -0.000000   0.000000
     4  C    0.000074  -0.000000  -0.000001   0.000122   0.000000   0.000000
     5  C    0.001486   0.000002   0.000083  -0.000129  -0.000001  -0.000000
     6  C   -0.004926  -0.000026   0.000063   0.000500  -0.000005   0.000002
     7  H   -0.000000  -0.000000  -0.000000  -0.000000  -0.000000   0.000000
     8  H    0.000002   0.000000   0.000000  -0.000010  -0.000000  -0.000000
     9  H    0.000249   0.000000   0.000125   0.006241   0.000001  -0.000000
    10  C    0.528741  -0.049354  -0.007219  -0.034759  -0.039360   0.003804
    11  C    0.004911   0.005752  -0.000084  -0.000152  -0.000083  -0.000212
    12  C   -0.055921   0.530359  -0.038296   0.003768  -0.007188  -0.038481
    13  C    5.021878  -0.044009   0.516053   0.356082  -0.035014   0.000254
    14  C   -0.044009   5.028226  -0.039481   0.000459   0.519420   0.362446
    15  C    0.516053  -0.039481   4.900380  -0.037045   0.552041   0.004004
    16  H    0.356082   0.000459  -0.037045   0.521397   0.003754   0.000014
    17  C   -0.035014   0.519420   0.552041   0.003754   4.893138  -0.036344
    18  H    0.000254   0.362446   0.004004   0.000014  -0.036344   0.537396
    19  H   -0.036176   0.004087   0.368680  -0.004258  -0.036393  -0.000152
    20  H    0.003905  -0.036867  -0.035563  -0.000148   0.368213  -0.004244
    21  C    0.000000   0.000000  -0.000000   0.000000   0.000000   0.000000
    22  C    0.000000   0.000000  -0.000000   0.000000  -0.000000   0.000000
    23  C    0.000000   0.000000  -0.000000  -0.000000  -0.000000  -0.000000
    24  C    0.000000   0.000000  -0.000000   0.000000   0.000000   0.000000
    25  C    0.000000  -0.000000   0.000000  -0.000000  -0.000000   0.000000
    26  C   -0.000000   0.000000  -0.000000   0.000000   0.000000   0.000000
    27  H    0.000000  -0.000000   0.000000   0.000000   0.000000  -0.000000
    28  C    0.000000  -0.000000   0.000000   0.000000   0.000000   0.000000
    29  H    0.000000   0.000000   0.000000  -0.000000   0.000000  -0.000000
    30  H   -0.000000  -0.000000   0.000000  -0.000000   0.000000   0.000000
    31  H   -0.000000   0.000000   0.000000  -0.000000   0.000000   0.000000
    32  N   -0.000000   0.000000   0.000000   0.000000  -0.000000  -0.000000
    33  N    0.000000  -0.000000   0.000000   0.000000   0.000000  -0.000000
    34  N   -0.075298   0.008962   0.005065  -0.004536  -0.000208  -0.000087
    35  N    0.009441  -0.082507  -0.000123  -0.000102   0.005318  -0.006937
    36  C   -0.000123  -0.002764   0.000009   0.000003  -0.000118   0.003994
    37  H   -0.000009   0.002733  -0.000002  -0.000000  -0.000005   0.000548
    38  H   -0.000009   0.002731  -0.000002  -0.000000  -0.000005   0.000547
    39  H    0.000006   0.000036  -0.000000  -0.000000   0.000001  -0.000035
    40  C    0.000000   0.000000  -0.000000   0.000000   0.000000  -0.000000
    41  H    0.000000   0.000000  -0.000000   0.000000  -0.000000  -0.000000
    42  H    0.000000   0.000000  -0.000000   0.000000  -0.000000  -0.000000
    43  H    0.000000   0.000000  -0.000000   0.000000  -0.000000   0.000000
    44  Co  -0.000529  -0.000402   0.000001   0.000062  -0.000004   0.000009
              19         20         21         22         23         24
     1  C   -0.000000  -0.000000   0.008100   0.017627  -0.000907   0.000162
     2  C    0.000000  -0.000000  -0.041214  -0.070101   0.007131  -0.004925
     3  C   -0.000000   0.000000  -0.006525   0.003602   0.000150   0.001486
     4  C    0.000000  -0.000000   0.000107   0.000034  -0.000000   0.000074
     5  C    0.000002  -0.000000   0.000001  -0.000146   0.000000  -0.000002
     6  C   -0.000002  -0.000000   0.000003   0.003405  -0.000001   0.000003
     7  H    0.000000  -0.000000   0.000307  -0.000143  -0.000031   0.000249
     8  H    0.000000  -0.000000  -0.000002   0.000001  -0.000000   0.000002
     9  H   -0.000009   0.000000  -0.000000  -0.000000   0.000000  -0.000000
    10  C    0.002018   0.000906  -0.000000  -0.000009   0.000000   0.000000
    11  C    0.000003   0.000003  -0.000009  -0.018493  -0.000003   0.000000
    12  C    0.000929   0.002197   0.000000  -0.000003  -0.000000   0.000000
    13  C   -0.036176   0.003905   0.000000   0.000000   0.000000   0.000000
    14  C    0.004087  -0.036867   0.000000   0.000000   0.000000   0.000000
    15  C    0.368680  -0.035563  -0.000000  -0.000000  -0.000000  -0.000000
    16  H   -0.004258  -0.000148   0.000000   0.000000  -0.000000   0.000000
    17  C   -0.036393   0.368213   0.000000  -0.000000  -0.000000   0.000000
    18  H   -0.000152  -0.004244   0.000000   0.000000  -0.000000   0.000000
    19  H    0.536192  -0.004471   0.000000   0.000000   0.000000  -0.000000
    20  H   -0.004471   0.536823   0.000000   0.000000   0.000000  -0.000000
    21  C    0.000000   0.000000   4.639602  -0.074936   0.520761   0.528740
    22  C    0.000000   0.000000  -0.074936   4.816435  -0.056254   0.004911
    23  C    0.000000   0.000000   0.520761  -0.056254   4.658696  -0.055921
    24  C   -0.000000  -0.000000   0.528740   0.004911  -0.055921   5.021876
    25  C   -0.000000   0.000000  -0.049354   0.005752   0.530360  -0.044009
    26  C    0.000000   0.000000  -0.007220  -0.000084  -0.038296   0.516054
    27  H   -0.000000  -0.000000  -0.034759  -0.000152   0.003768   0.356082
    28  C    0.000000   0.000000  -0.039360  -0.000083  -0.007188  -0.035014
    29  H    0.000000   0.000000   0.003804  -0.000212  -0.038481   0.000254
    30  H    0.000000   0.000000   0.002018   0.000003   0.000929  -0.036176
    31  H    0.000000   0.000000   0.000906   0.000003   0.002197   0.003905
    32  N   -0.000000   0.000000   0.267865   0.354573  -0.041813  -0.075297
    33  N   -0.000000  -0.000000  -0.043631   0.317264   0.274732   0.009440
    34  N   -0.000086   0.000004  -0.000000   0.000425   0.000000  -0.000000
    35  N    0.000003  -0.000095  -0.000000   0.000024   0.000000   0.000000
    36  C   -0.000000  -0.000002   0.000000   0.000020   0.000000   0.000000
    37  H   -0.000000  -0.000000  -0.000000  -0.000000  -0.000000   0.000000
    38  H   -0.000000  -0.000000  -0.000000  -0.000000  -0.000000   0.000000
    39  H   -0.000000  -0.000000   0.000000  -0.000001  -0.000000   0.000000
    40  C    0.000000  -0.000000   0.005889  -0.043388  -0.047774  -0.000123
    41  H   -0.000000   0.000000  -0.000145   0.000653  -0.001440  -0.000009
    42  H   -0.000000   0.000000  -0.000144   0.000658  -0.001444  -0.000009
    43  H    0.000000   0.000000   0.000014  -0.000192   0.002683   0.000006
    44  Co   0.000017  -0.000006   0.007309   0.359112   0.005439  -0.000529
              25         26         27         28         29         30
     1  C   -0.000001   0.000002  -0.000038   0.000000  -0.000000  -0.000000
     2  C   -0.000026   0.000063   0.000500  -0.000005   0.000002  -0.000002
     3  C    0.000002   0.000083  -0.000129  -0.000001  -0.000000   0.000002
     4  C   -0.000000  -0.000001   0.000122   0.000000   0.000000   0.000000
     5  C    0.000000   0.000000   0.000000  -0.000000   0.000000  -0.000000
     6  C   -0.000000  -0.000000   0.000001   0.000000   0.000000   0.000000
     7  H    0.000000   0.000125   0.006241   0.000001  -0.000000  -0.000009
     8  H    0.000000   0.000000  -0.000010  -0.000000  -0.000000   0.000000
     9  H   -0.000000  -0.000000  -0.000000  -0.000000   0.000000   0.000000
    10  C    0.000000  -0.000000   0.000000   0.000000   0.000000   0.000000
    11  C    0.000000  -0.000000   0.000000  -0.000000   0.000000   0.000000
    12  C    0.000000  -0.000000  -0.000000  -0.000000  -0.000000   0.000000
    13  C    0.000000  -0.000000   0.000000   0.000000   0.000000  -0.000000
    14  C   -0.000000   0.000000  -0.000000  -0.000000   0.000000  -0.000000
    15  C    0.000000  -0.000000   0.000000   0.000000   0.000000   0.000000
    16  H   -0.000000   0.000000   0.000000   0.000000  -0.000000  -0.000000
    17  C   -0.000000   0.000000   0.000000   0.000000   0.000000   0.000000
    18  H    0.000000   0.000000  -0.000000   0.000000  -0.000000   0.000000
    19  H   -0.000000   0.000000  -0.000000   0.000000   0.000000   0.000000
    20  H    0.000000   0.000000  -0.000000   0.000000   0.000000   0.000000
    21  C   -0.049354  -0.007220  -0.034759  -0.039360   0.003804   0.002018
    22  C    0.005752  -0.000084  -0.000152  -0.000083  -0.000212   0.000003
    23  C    0.530360  -0.038296   0.003768  -0.007188  -0.038481   0.000929
    24  C   -0.044009   0.516054   0.356082  -0.035014   0.000254  -0.036176
    25  C    5.028227  -0.039481   0.000459   0.519419   0.362446   0.004087
    26  C   -0.039481   4.900378  -0.037045   0.552041   0.004004   0.368680
    27  H    0.000459  -0.037045   0.521397   0.003754   0.000014  -0.004258
    28  C    0.519419   0.552041   0.003754   4.893140  -0.036344  -0.036393
    29  H    0.362446   0.004004   0.000014  -0.036344   0.537395  -0.000152
    30  H    0.004087   0.368680  -0.004258  -0.036393  -0.000152   0.536191
    31  H   -0.036867  -0.035563  -0.000148   0.368213  -0.004244  -0.004471
    32  N    0.008962   0.005065  -0.004536  -0.000208  -0.000087  -0.000086
    33  N   -0.082507  -0.000123  -0.000102   0.005318  -0.006937   0.000003
    34  N    0.000000   0.000000   0.000000  -0.000000  -0.000000  -0.000000
    35  N   -0.000000   0.000000   0.000000   0.000000  -0.000000  -0.000000
    36  C    0.000000  -0.000000   0.000000   0.000000  -0.000000   0.000000
    37  H    0.000000  -0.000000   0.000000  -0.000000  -0.000000  -0.000000
    38  H    0.000000  -0.000000   0.000000  -0.000000  -0.000000  -0.000000
    39  H    0.000000  -0.000000   0.000000  -0.000000   0.000000   0.000000
    40  C   -0.002764   0.000009   0.000003  -0.000118   0.003994  -0.000000
    41  H    0.002731  -0.000002  -0.000000  -0.000005   0.000547  -0.000000
    42  H    0.002733  -0.000002  -0.000000  -0.000005   0.000548  -0.000000
    43  H    0.000036  -0.000000  -0.000000   0.000001  -0.000035  -0.000000
    44  Co  -0.000402   0.000001   0.000062  -0.000004   0.000009   0.000017
              31         32         33         34         35         36
     1  C   -0.000000  -0.034398   0.001170  -0.034398   0.001170  -0.000017
     2  C   -0.000000   0.251187   0.006495   0.007047  -0.000054   0.000000
     3  C   -0.000000  -0.064052  -0.000153   0.001054   0.000000  -0.000000
     4  C   -0.000000   0.003695   0.000001   0.003695   0.000001  -0.000000
     5  C    0.000000   0.001054   0.000000  -0.064052  -0.000153   0.000002
     6  C   -0.000000   0.007047  -0.000054   0.251188   0.006495  -0.000048
     7  H    0.000000  -0.004764   0.000002   0.000007  -0.000000  -0.000000
     8  H   -0.000000  -0.000093  -0.000000  -0.000093  -0.000000   0.000000
     9  H   -0.000000   0.000007  -0.000000  -0.004764   0.000002   0.000000
    10  C    0.000000  -0.000000  -0.000000   0.267864  -0.043632   0.005889
    11  C    0.000000   0.000425   0.000024   0.354573   0.317263  -0.043388
    12  C    0.000000   0.000000   0.000000  -0.041813   0.274732  -0.047774
    13  C   -0.000000  -0.000000   0.000000  -0.075298   0.009441  -0.000123
    14  C    0.000000   0.000000  -0.000000   0.008962  -0.082507  -0.002764
    15  C    0.000000   0.000000   0.000000   0.005065  -0.000123   0.000009
    16  H   -0.000000   0.000000   0.000000  -0.004536  -0.000102   0.000003
    17  C    0.000000  -0.000000   0.000000  -0.000208   0.005318  -0.000118
    18  H    0.000000  -0.000000  -0.000000  -0.000087  -0.006937   0.003994
    19  H    0.000000  -0.000000  -0.000000  -0.000086   0.000003  -0.000000
    20  H    0.000000   0.000000  -0.000000   0.000004  -0.000095  -0.000002
    21  C    0.000906   0.267865  -0.043631  -0.000000  -0.000000   0.000000
    22  C    0.000003   0.354573   0.317264   0.000425   0.000024   0.000020
    23  C    0.002197  -0.041813   0.274732   0.000000   0.000000   0.000000
    24  C    0.003905  -0.075297   0.009440  -0.000000   0.000000   0.000000
    25  C   -0.036867   0.008962  -0.082507   0.000000  -0.000000   0.000000
    26  C   -0.035563   0.005065  -0.000123   0.000000   0.000000  -0.000000
    27  H   -0.000148  -0.004536  -0.000102   0.000000   0.000000   0.000000
    28  C    0.368213  -0.000208   0.005318  -0.000000   0.000000   0.000000
    29  H   -0.004244  -0.000087  -0.006937  -0.000000  -0.000000  -0.000000
    30  H   -0.004471  -0.000086   0.000003  -0.000000  -0.000000   0.000000
    31  H    0.536823   0.000004  -0.000095   0.000000  -0.000000  -0.000000
    32  N    0.000004   7.181687  -0.062411  -0.000235   0.000001  -0.000000
    33  N   -0.000095  -0.062411   7.061121   0.000001  -0.000000  -0.000000
    34  N    0.000000  -0.000235   0.000001   7.181686  -0.062410   0.005101
    35  N   -0.000000   0.000001  -0.000000  -0.062410   7.061121   0.297107
    36  C   -0.000000  -0.000000  -0.000000   0.005101   0.297107   5.048225
    37  H    0.000000   0.000000  -0.000000  -0.000067  -0.041642   0.378033
    38  H    0.000000   0.000000  -0.000000  -0.000067  -0.041648   0.378037
    39  H    0.000000  -0.000000   0.000001   0.000141  -0.032958   0.377502
    40  C   -0.000002   0.005101   0.297107  -0.000000  -0.000000   0.000000
    41  H   -0.000000  -0.000067  -0.041648   0.000000  -0.000000  -0.000000
    42  H   -0.000000  -0.000067  -0.041641   0.000000  -0.000000  -0.000000
    43  H   -0.000000   0.000141  -0.032959  -0.000000   0.000001  -0.000001
    44  Co  -0.000006  -0.084695  -0.052305  -0.084695  -0.052305  -0.003066
              37         38         39         40         41         42
     1  C   -0.000000  -0.000000  -0.000023  -0.000017  -0.000000  -0.000000
     2  C   -0.000000  -0.000000   0.000001  -0.000048   0.000004   0.000004
     3  C    0.000000   0.000000   0.000000   0.000002  -0.000000  -0.000000
     4  C    0.000000   0.000000  -0.000000  -0.000000   0.000000   0.000000
     5  C   -0.000000  -0.000000  -0.000000  -0.000000   0.000000   0.000000
     6  C    0.000004   0.000004  -0.000016   0.000000  -0.000000  -0.000000
     7  H    0.000000   0.000000   0.000000   0.000000  -0.000000  -0.000000
     8  H   -0.000000  -0.000000   0.000000   0.000000  -0.000000  -0.000000
     9  H   -0.000000  -0.000000   0.000000  -0.000000   0.000000   0.000000
    10  C   -0.000144  -0.000144   0.000014   0.000000  -0.000000  -0.000000
    11  C    0.000658   0.000653  -0.000192   0.000020  -0.000000  -0.000000
    12  C   -0.001444  -0.001440   0.002683   0.000000  -0.000000  -0.000000
    13  C   -0.000009  -0.000009   0.000006   0.000000   0.000000   0.000000
    14  C    0.002733   0.002731   0.000036   0.000000   0.000000   0.000000
    15  C   -0.000002  -0.000002  -0.000000  -0.000000  -0.000000  -0.000000
    16  H   -0.000000  -0.000000  -0.000000   0.000000   0.000000   0.000000
    17  C   -0.000005  -0.000005   0.000001   0.000000  -0.000000  -0.000000
    18  H    0.000548   0.000547  -0.000035  -0.000000  -0.000000  -0.000000
    19  H   -0.000000  -0.000000  -0.000000   0.000000  -0.000000  -0.000000
    20  H   -0.000000  -0.000000  -0.000000  -0.000000   0.000000   0.000000
    21  C   -0.000000  -0.000000   0.000000   0.005889  -0.000145  -0.000144
    22  C   -0.000000  -0.000000  -0.000001  -0.043388   0.000653   0.000658
    23  C   -0.000000  -0.000000  -0.000000  -0.047774  -0.001440  -0.001444
    24  C    0.000000   0.000000   0.000000  -0.000123  -0.000009  -0.000009
    25  C    0.000000   0.000000   0.000000  -0.002764   0.002731   0.002733
    26  C   -0.000000  -0.000000  -0.000000   0.000009  -0.000002  -0.000002
    27  H    0.000000   0.000000   0.000000   0.000003  -0.000000  -0.000000
    28  C   -0.000000  -0.000000  -0.000000  -0.000118  -0.000005  -0.000005
    29  H   -0.000000  -0.000000   0.000000   0.003994   0.000547   0.000548
    30  H   -0.000000  -0.000000   0.000000  -0.000000  -0.000000  -0.000000
    31  H    0.000000   0.000000   0.000000  -0.000002  -0.000000  -0.000000
    32  N    0.000000   0.000000  -0.000000   0.005101  -0.000067  -0.000067
    33  N   -0.000000  -0.000000   0.000001   0.297107  -0.041648  -0.041641
    34  N   -0.000067  -0.000067   0.000141  -0.000000   0.000000   0.000000
    35  N   -0.041642  -0.041648  -0.032958  -0.000000  -0.000000  -0.000000
    36  C    0.378033   0.378037   0.377502   0.000000  -0.000000  -0.000000
    37  H    0.523609  -0.040794  -0.024832  -0.000000  -0.000000   0.000000
    38  H   -0.040794   0.523612  -0.024841  -0.000000   0.000000  -0.000000
    39  H   -0.024832  -0.024841   0.482205  -0.000001   0.000000   0.000000
    40  C   -0.000000  -0.000000  -0.000001   5.048225   0.378037   0.378033
    41  H   -0.000000   0.000000   0.000000   0.378037   0.523612  -0.040794
    42  H    0.000000  -0.000000   0.000000   0.378033  -0.040794   0.523610
    43  H    0.000000   0.000000  -0.000024   0.377502  -0.024841  -0.024832
    44  Co   0.001013   0.001017   0.007106  -0.003066   0.001017   0.001013
              43         44
     1  C   -0.000023   0.262899
     2  C   -0.000016  -0.070823
     3  C   -0.000000   0.002834
     4  C   -0.000000   0.002425
     5  C    0.000000   0.002834
     6  C    0.000001  -0.070824
     7  H    0.000000  -0.000412
     8  H    0.000000   0.000194
     9  H    0.000000  -0.000412
    10  C    0.000000   0.007309
    11  C   -0.000001   0.359113
    12  C   -0.000000   0.005439
    13  C    0.000000  -0.000529
    14  C    0.000000  -0.000402
    15  C   -0.000000   0.000001
    16  H    0.000000   0.000062
    17  C   -0.000000  -0.000004
    18  H    0.000000   0.000009
    19  H    0.000000   0.000017
    20  H    0.000000  -0.000006
    21  C    0.000014   0.007309
    22  C   -0.000192   0.359112
    23  C    0.002683   0.005439
    24  C    0.000006  -0.000529
    25  C    0.000036  -0.000402
    26  C   -0.000000   0.000001
    27  H   -0.000000   0.000062
    28  C    0.000001  -0.000004
    29  H   -0.000035   0.000009
    30  H   -0.000000   0.000017
    31  H   -0.000000  -0.000006
    32  N    0.000141  -0.084695
    33  N   -0.032959  -0.052305
    34  N   -0.000000  -0.084695
    35  N    0.000001  -0.052305
    36  C   -0.000001  -0.003066
    37  H    0.000000   0.001013
    38  H    0.000000   0.001017
    39  H   -0.000024   0.007106
    40  C    0.377502  -0.003066
    41  H   -0.024841   0.001017
    42  H   -0.024832   0.001013
    43  H    0.482205   0.007106
    44  Co   0.007106  16.271706
          Atomic-Atomic Spin Densities.
               1          2          3          4          5          6
     1  C   -0.178881  -0.015337   0.003026   0.002106   0.003026  -0.015337
     2  C   -0.015337   0.128765   0.007777  -0.005228   0.000996   0.004525
     3  C    0.003026   0.007777  -0.089296  -0.007425   0.000880   0.000996
     4  C    0.002106  -0.005228  -0.007425   0.166873  -0.007425  -0.005228
     5  C    0.003026   0.000996   0.000880  -0.007425  -0.089297   0.007777
     6  C   -0.015337   0.004525   0.000996  -0.005228   0.007777   0.128766
     7  H   -0.000129  -0.000350   0.001895   0.000121   0.000033  -0.000069
     8  H   -0.000054   0.000014   0.000073  -0.000099   0.000073   0.000014
     9  H   -0.000129  -0.000069   0.000033   0.000121   0.001895  -0.000350
    10  C   -0.000158  -0.000022   0.000001   0.000012   0.000318  -0.000216
    11  C    0.005070  -0.001011  -0.000005   0.000034  -0.000217  -0.006567
    12  C    0.000026   0.000000  -0.000000  -0.000000  -0.000009   0.000048
    13  C    0.000022  -0.000000  -0.000000   0.000008  -0.000202  -0.000358
    14  C    0.000001   0.000000  -0.000000   0.000000  -0.000001  -0.000017
    15  C   -0.000000   0.000000   0.000000  -0.000000   0.000003   0.000010
    16  H   -0.000001  -0.000000  -0.000000   0.000001   0.000034   0.000040
    17  C   -0.000000  -0.000000   0.000000  -0.000000   0.000000   0.000001
    18  H    0.000000   0.000000  -0.000000   0.000000   0.000000   0.000000
    19  H    0.000000   0.000000  -0.000000  -0.000000  -0.000000   0.000000
    20  H    0.000000   0.000000  -0.000000  -0.000000  -0.000000  -0.000000
    21  C   -0.000158  -0.000216   0.000318   0.000012   0.000001  -0.000022
    22  C    0.005070  -0.006567  -0.000217   0.000034  -0.000005  -0.001011
    23  C    0.000026   0.000048  -0.000009  -0.000000  -0.000000   0.000000
    24  C    0.000022  -0.000358  -0.000202   0.000008  -0.000000  -0.000000
    25  C    0.000001  -0.000017  -0.000001   0.000000  -0.000000   0.000000
    26  C   -0.000000   0.000010   0.000003  -0.000000   0.000000   0.000000
    27  H   -0.000001   0.000040   0.000034   0.000001  -0.000000  -0.000000
    28  C   -0.000000   0.000001   0.000000  -0.000000   0.000000  -0.000000
    29  H    0.000000   0.000000   0.000000   0.000000  -0.000000   0.000000
    30  H    0.000000   0.000000  -0.000000  -0.000000  -0.000000   0.000000
    31  H    0.000000  -0.000000  -0.000000  -0.000000  -0.000000   0.000000
    32  N    0.000028   0.011903   0.002581  -0.000027   0.000021  -0.000015
    33  N   -0.000543   0.000410  -0.000007  -0.000000  -0.000000   0.000004
    34  N    0.000028  -0.000015   0.000021  -0.000027   0.002581   0.011903
    35  N   -0.000543   0.000004  -0.000000  -0.000000  -0.000007   0.000410
    36  C   -0.000009   0.000000  -0.000000   0.000000  -0.000000  -0.000006
    37  H    0.000001  -0.000000  -0.000000   0.000000  -0.000000  -0.000001
    38  H    0.000001  -0.000000  -0.000000   0.000000  -0.000000  -0.000001
    39  H    0.000010   0.000000   0.000000   0.000000   0.000000   0.000000
    40  C   -0.000009  -0.000006  -0.000000   0.000000  -0.000000   0.000000
    41  H    0.000001  -0.000001  -0.000000   0.000000  -0.000000  -0.000000
    42  H    0.000001  -0.000001  -0.000000   0.000000  -0.000000  -0.000000
    43  H    0.000010   0.000000   0.000000   0.000000   0.000000   0.000000
    44  Co   0.035181  -0.012843  -0.001657   0.001841  -0.001657  -0.012843
               7          8          9         10         11         12
     1  C   -0.000129  -0.000054  -0.000129  -0.000158   0.005070   0.000026
     2  C   -0.000350   0.000014  -0.000069  -0.000022  -0.001011   0.000000
     3  C    0.001895   0.000073   0.000033   0.000001  -0.000005  -0.000000
     4  C    0.000121  -0.000099   0.000121   0.000012   0.000034  -0.000000
     5  C    0.000033   0.000073   0.001895   0.000318  -0.000217  -0.000009
     6  C   -0.000069   0.000014  -0.000350  -0.000216  -0.006567   0.000048
     7  H    0.000041   0.000011  -0.000007  -0.000000   0.000000   0.000000
     8  H    0.000011  -0.007751   0.000011  -0.000000   0.000000   0.000000
     9  H   -0.000007   0.000011   0.000041  -0.000037   0.000011   0.000001
    10  C   -0.000000  -0.000000  -0.000037  -0.007600   0.001211  -0.001843
    11  C    0.000000   0.000000   0.000011   0.001211   0.182957  -0.001027
    12  C    0.000000   0.000000   0.000001  -0.001843  -0.001027  -0.025444
    13  C    0.000000  -0.000000   0.000039   0.003568   0.000304   0.000602
    14  C    0.000000   0.000000   0.000000   0.000701   0.000492   0.000922
    15  C    0.000000  -0.000000   0.000004  -0.000646  -0.000026   0.000160
    16  H   -0.000000  -0.000000  -0.000088  -0.000139  -0.000001  -0.000006
    17  C   -0.000000  -0.000000  -0.000000   0.000129  -0.000015  -0.000300
    18  H   -0.000000  -0.000000  -0.000000  -0.000008  -0.000001  -0.000060
    19  H   -0.000000  -0.000000  -0.000000   0.000003  -0.000000  -0.000007
    20  H    0.000000   0.000000   0.000000  -0.000007  -0.000000   0.000012
    21  C   -0.000037  -0.000000  -0.000000  -0.000000   0.000001  -0.000000
    22  C    0.000011   0.000000   0.000000   0.000001   0.001971   0.000000
    23  C    0.000001   0.000000   0.000000  -0.000000   0.000000   0.000000
    24  C    0.000039  -0.000000   0.000000   0.000000   0.000000   0.000000
    25  C    0.000000   0.000000   0.000000   0.000000   0.000000   0.000000
    26  C    0.000004  -0.000000   0.000000   0.000000  -0.000000  -0.000000
    27  H   -0.000088  -0.000000  -0.000000  -0.000000   0.000000   0.000000
    28  C   -0.000000  -0.000000  -0.000000  -0.000000  -0.000000   0.000000
    29  H   -0.000000  -0.000000  -0.000000   0.000000  -0.000000  -0.000000
    30  H   -0.000000  -0.000000  -0.000000  -0.000000  -0.000000   0.000000
    31  H    0.000000   0.000000   0.000000   0.000000  -0.000000  -0.000000
    32  N   -0.000197   0.000000  -0.000001  -0.000000  -0.000042  -0.000000
    33  N    0.000001  -0.000000   0.000000   0.000000  -0.000006   0.000000
    34  N   -0.000001   0.000000  -0.000197  -0.000000  -0.030035   0.001266
    35  N    0.000000  -0.000000   0.000001  -0.000466  -0.042007   0.004976
    36  C    0.000000   0.000000   0.000000  -0.000034   0.000541   0.000323
    37  H   -0.000000  -0.000000  -0.000000   0.000002   0.000415  -0.000099
    38  H   -0.000000  -0.000000  -0.000000   0.000002   0.000416  -0.000099
    39  H   -0.000000  -0.000000  -0.000000  -0.000000  -0.000484  -0.000044
    40  C    0.000000   0.000000   0.000000   0.000000  -0.000001  -0.000000
    41  H   -0.000000  -0.000000  -0.000000   0.000000   0.000000   0.000000
    42  H   -0.000000  -0.000000  -0.000000   0.000000   0.000000   0.000000
    43  H   -0.000000  -0.000000  -0.000000  -0.000000   0.000002   0.000000
    44  Co   0.000209   0.000013   0.000209   0.001009   0.059881   0.000252
              13         14         15         16         17         18
     1  C    0.000022   0.000001  -0.000000  -0.000001  -0.000000   0.000000
     2  C   -0.000000   0.000000   0.000000  -0.000000  -0.000000   0.000000
     3  C   -0.000000  -0.000000   0.000000  -0.000000   0.000000  -0.000000
     4  C    0.000008   0.000000  -0.000000   0.000001  -0.000000   0.000000
     5  C   -0.000202  -0.000001   0.000003   0.000034   0.000000   0.000000
     6  C   -0.000358  -0.000017   0.000010   0.000040   0.000001   0.000000
     7  H    0.000000   0.000000   0.000000  -0.000000  -0.000000  -0.000000
     8  H   -0.000000   0.000000  -0.000000  -0.000000  -0.000000  -0.000000
     9  H    0.000039   0.000000   0.000004  -0.000088  -0.000000  -0.000000
    10  C    0.003568   0.000701  -0.000646  -0.000139   0.000129  -0.000008
    11  C    0.000304   0.000492  -0.000026  -0.000001  -0.000015  -0.000001
    12  C    0.000602   0.000922   0.000160  -0.000006  -0.000300  -0.000060
    13  C    0.026212   0.001052  -0.009708   0.000178  -0.001412  -0.000006
    14  C    0.001052   0.048375  -0.002087  -0.000003  -0.008007   0.000061
[...]
 
              Baa    -0.0052    -0.699    -0.249    -0.233  0.0000 -0.0002  1.0000
    40 C(13)  Bbb    -0.0033    -0.439    -0.157    -0.146 -0.6471  0.7624  0.0001
              Bcc     0.0085     1.138     0.406     0.380  0.7624  0.6471  0.0001
 
              Baa    -0.0037    -2.000    -0.714    -0.667 -0.0419  0.3520  0.9351
    41 H(1)   Bbb    -0.0024    -1.273    -0.454    -0.425 -0.6729  0.6819 -0.2868
              Bcc     0.0061     3.273     1.168     1.092  0.7385  0.6412 -0.2083
 
              Baa    -0.0037    -1.999    -0.713    -0.667  0.0419 -0.3519  0.9351
    42 H(1)   Bbb    -0.0024    -1.273    -0.454    -0.425 -0.6729  0.6819  0.2867
              Bcc     0.0061     3.272     1.168     1.092  0.7386  0.6412  0.2082
 
              Baa    -0.0069    -3.671    -1.310    -1.225  0.0000 -0.0001  1.0000
    43 H(1)   Bbb    -0.0057    -3.027    -1.080    -1.010  0.7786 -0.6276 -0.0001
              Bcc     0.0126     6.699     2.390     2.234  0.6276  0.7786  0.0001
 
              Baa    -1.5708  -198.361   -70.780   -66.166  1.0000  0.0000  0.0000
    44 Co(59) Bbb     0.3471    43.837    15.642    14.622 -0.0000  1.0000 -0.0001
              Bcc     1.2237   154.524    55.138    51.544 -0.0000  0.0001  1.0000
 

 ---------------------------------------------------------------------------------

   1 Symmetry operations used in ECPInt.
 ECPInt:  NShTT=   11781 NPrTT=   71406 LenC2=    9568 LenP2D=   32152.
 LDataN:  DoStor=T MaxTD1= 7 Len=  274
 Calling FoFJK, ICntrl=      2127 FMM=F ISym2X=0 I1Cent= 0 IOpClX= 1 NMat=1 NMatS=1 NMatT=0.
 -------------------------------------------------------------------
 Center     Atomic                   Forces (Hartrees/Bohr)
 Number     Number              X              Y              Z
 -------------------------------------------------------------------
      1        6          -0.000001841    0.033024500   -0.000012085
      2        6          -0.010374568   -0.013435972    0.000002957
      3        6           0.000792965    0.000336840    0.000002253
      4        6           0.000000411   -0.003099182   -0.000001223
      5        6          -0.000794843    0.000336778    0.000002513
      6        6           0.010374223   -0.013433014    0.000003764
      7        1          -0.000162840   -0.001702342   -0.000000436
      8        1           0.000000122   -0.001180189   -0.000000193
      9        1           0.000163892   -0.001701909   -0.000000593
     10        6           0.000562791    0.001690791    0.000000040
     11        6          -0.000132685   -0.002101112   -0.000010894
     12        6          -0.005229044   -0.002863388    0.000002106
     13        6          -0.002842676    0.000185000   -0.000000470
     14        6          -0.001914608   -0.000417722    0.000000157
     15        6           0.003075172   -0.001509931   -0.000000162
     16        1          -0.000138757   -0.000725872    0.000000152
     17        6          -0.001845490    0.002028919   -0.000000462
     18        1          -0.000520573    0.000378037   -0.000000114
     19        1          -0.001394063   -0.000523687    0.000000232
     20        1          -0.000032269    0.000223099    0.000000151
     21        6          -0.000564949    0.001695286   -0.000000705
     22        6           0.000131794   -0.002100240   -0.000006283
     23        6           0.005233314   -0.002865535    0.000001021
     24        6           0.002845231    0.000181528   -0.000000278
     25        6           0.001911963   -0.000415740    0.000000544
     26        6          -0.003074880   -0.001509536   -0.000000064
     27        1           0.000138883   -0.000725192    0.000000061
     28        6           0.001845809    0.002026542   -0.000000499
     29        1           0.000520567    0.000377640   -0.000000135
     30        1           0.001393717   -0.000523345    0.000000199
     31        1           0.000032275    0.000223243    0.000000041
     32        7          -0.005712691    0.014819458    0.000002357
     33        7          -0.007774429   -0.004886211    0.000000392
     34        7           0.005714504    0.014817499    0.000001194
     35        7           0.007771701   -0.004887067    0.000002690
     36        6          -0.000509842    0.001748166    0.000001682
     37        1          -0.000481761    0.000234840   -0.000100592
     38        1          -0.000481946    0.000234938    0.000098785
     39        1           0.000223330   -0.000727577   -0.000000020
     40        6           0.000509854    0.001747483    0.000002182
     41        1           0.000481925    0.000235193    0.000098631
     42        1           0.000481597    0.000234983   -0.000100819
     43        1          -0.000222688   -0.000728072    0.000000072
     44       27           0.000001401   -0.014717927    0.000011850
 -------------------------------------------------------------------
 Cartesian Forces:  Max     0.033024500 RMS     0.004555284

 GradGradGradGradGradGradGradGradGradGradGradGradGradGradGradGradGradGrad
 Berny optimization.
 Search for a local minimum.
 Step number   1 out of a maximum of    2
 All quantities printed in internal units (Hartrees-Bohrs-Radians)
 Second derivative matrix not updated -- first step.
 ITU=  0
     Eigenvalues ---    0.00051   0.00062   0.00195   0.00236   0.00241
     Eigenvalues ---    0.00366   0.00434   0.00584   0.00594   0.00613
     Eigenvalues ---    0.00666   0.00841   0.00856   0.01293   0.01590
     Eigenvalues ---    0.01828   0.01929   0.02024   0.02521   0.02527
     Eigenvalues ---    0.03018   0.03253   0.04032   0.04129   0.04272
     Eigenvalues ---    0.04482   0.04685   0.05390   0.05497   0.05982
     Eigenvalues ---    0.06291   0.06925   0.06953   0.07016   0.07032
     Eigenvalues ---    0.07039   0.07325   0.07675   0.07746   0.09664
     Eigenvalues ---    0.09783   0.10481   0.10575   0.11460   0.11940
     Eigenvalues ---    0.11997   0.12242   0.12523   0.12734   0.13368
     Eigenvalues ---    0.13394   0.13514   0.13653   0.14831   0.15734
     Eigenvalues ---    0.15789   0.15860   0.19335   0.20209   0.20584
     Eigenvalues ---    0.21643   0.22660   0.23972   0.24769   0.28982
     Eigenvalues ---    0.29879   0.30353   0.30688   0.31482   0.31790
     Eigenvalues ---    0.33228   0.34367   0.36237   0.36856   0.37091
     Eigenvalues ---    0.39618   0.41191   0.43194   0.45840   0.46819
     Eigenvalues ---    0.48639   0.49106   0.49285   0.52223   0.53172
     Eigenvalues ---    0.53237   0.54902   0.55036   0.64985   0.68124
     Eigenvalues ---    0.71544   0.73603   0.74934   0.82642   0.84923
     Eigenvalues ---    0.91154   0.92501   0.93390   0.94193   0.95768
     Eigenvalues ---    0.95776   0.97706   1.05164   1.06184   1.14177
     Eigenvalues ---    1.16792   1.17830   1.18052   1.21921   1.28560
     Eigenvalues ---    1.33618   1.37777   1.37974   1.45994   1.47478
     Eigenvalues ---    1.49798   1.54412   1.54871   1.61492   1.64443
     Eigenvalues ---    1.66401   1.67735   1.71711   1.75280   1.79128
     Eigenvalues ---    1.79603
 Angle between quadratic step and forces=  54.25 degrees.
 Linear search not attempted -- first point.
 B after Tr=     0.000000    0.001795   -0.000006
         Rot=    1.000000   -0.000000   -0.000000   -0.000000 Ang=  -0.00 deg.
 Variable       Old X    -DE/DX   Delta X   Delta X   Delta X     New X
                                 (Linear)    (Quad)   (Total)
    X1        0.00001  -0.00000   0.00000  -0.00000  -0.00000   0.00000
    Y1        1.20960   0.03302   0.00000   0.05504   0.05683   1.26643
    Z1        0.00024  -0.00001   0.00000  -0.00009  -0.00009   0.00015
    X2       -2.26285  -0.01037   0.00000  -0.03014  -0.03014  -2.29299
    Y2        2.56892  -0.01344   0.00000   0.00279   0.00458   2.57351
    Z2        0.00009   0.00000   0.00000  -0.00001  -0.00002   0.00008
    X3       -2.31594   0.00079   0.00000  -0.01376  -0.01376  -2.32970
    Y3        5.19696   0.00034   0.00000  -0.00446  -0.00266   5.19430
    Z3       -0.00001   0.00000   0.00000   0.00004   0.00004   0.00003
    X4        0.00000   0.00000   0.00000  -0.00000  -0.00000   0.00000
    Y4        6.48054  -0.00310   0.00000  -0.02364  -0.02184   6.45870
    Z4        0.00003  -0.00000   0.00000   0.00003   0.00002   0.00005
    X5        2.31595  -0.00079   0.00000   0.01375   0.01375   2.32970
    Y5        5.19696   0.00034   0.00000  -0.00445  -0.00266   5.19430
    Z5        0.00009   0.00000   0.00000   0.00002   0.00001   0.00010
    X6        2.26286   0.01037   0.00000   0.03013   0.03013   2.29299
    Y6        2.56892  -0.01343   0.00000   0.00279   0.00458   2.57351
    Z6        0.00018   0.00000   0.00000  -0.00003  -0.00004   0.00014
    X7       -4.05745  -0.00016   0.00000  -0.01443  -0.01443  -4.07188
    Y7        6.27843  -0.00170   0.00000  -0.00959  -0.00780   6.27063
    Z7       -0.00009  -0.00000   0.00000   0.00007   0.00007  -0.00003
    X8        0.00000   0.00000   0.00000  -0.00000  -0.00000  -0.00000
    Y8        8.53567  -0.00118   0.00000  -0.02700  -0.02520   8.51047
    Z8       -0.00002  -0.00000   0.00000   0.00004   0.00004   0.00002
    X9        4.05745   0.00016   0.00000   0.01442   0.01442   4.07188
    Y9        6.27843  -0.00170   0.00000  -0.00959  -0.00779   6.27063
    Z9        0.00009  -0.00000   0.00000   0.00003   0.00002   0.00011
   X10        6.89548   0.00056   0.00000   0.01968   0.01968   6.91515
   Y10        1.08388   0.00169   0.00000   0.00692   0.00871   1.09259
   Z10       -0.00004   0.00000   0.00000  -0.00002  -0.00003  -0.00007
   X11        3.55957  -0.00013   0.00000   0.01847   0.01847   3.57804
   Y11       -1.69559  -0.00210   0.00000   0.00832   0.01011  -1.68547
   Z11        0.00022  -0.00001   0.00000  -0.00006  -0.00007   0.00015
   X12        7.86653  -0.00523   0.00000   0.00078   0.00078   7.86731
   Y12       -1.39199  -0.00286   0.00000  -0.00368  -0.00188  -1.39387
   Z12       -0.00021   0.00000   0.00000   0.00001   0.00001  -0.00021
   X13        8.54010  -0.00284   0.00000   0.01433   0.01433   8.55443
   Y13        3.14116   0.00018   0.00000   0.00337   0.00517   3.14633
   Z13       -0.00010  -0.00000   0.00000  -0.00003  -0.00004  -0.00013
   X14       10.44722  -0.00191   0.00000  -0.00515  -0.00515  10.44207
   Y14       -1.89302  -0.00042   0.00000  -0.00514  -0.00335  -1.89636
   Z14       -0.00039   0.00000   0.00000   0.00004   0.00003  -0.00037
   X15       11.12984   0.00308   0.00000   0.01276   0.01276  11.14260
   Y15        2.64605  -0.00151   0.00000  -0.00478  -0.00299   2.64307
   Z15       -0.00032  -0.00000   0.00000  -0.00000  -0.00001  -0.00033
   X16        7.86143  -0.00014   0.00000   0.01265   0.01265   7.87408
   Y16        5.07397  -0.00073   0.00000   0.00088   0.00267   5.07665
   Z16        0.00003   0.00000   0.00000  -0.00005  -0.00005  -0.00003
   X17       12.07687  -0.00185   0.00000  -0.00207  -0.00207  12.07480
   Y17        0.17797   0.00203   0.00000  -0.00588  -0.00408   0.17389
   Z17       -0.00045  -0.00000   0.00000   0.00002   0.00002  -0.00044
   X18       11.16743  -0.00052   0.00000  -0.01205  -0.01205  11.15538
   Y18       -3.81550   0.00038   0.00000  -0.00610  -0.00431  -3.81980
   Z18       -0.00048  -0.00000   0.00000   0.00006   0.00005  -0.00043
   X19       12.45099  -0.00139   0.00000   0.00970   0.00970  12.46069
   Y19        4.22103  -0.00052   0.00000  -0.00704  -0.00525   4.21579
   Z19       -0.00037   0.00000   0.00000   0.00000  -0.00001  -0.00038
   X20       14.10473  -0.00003   0.00000  -0.00283  -0.00283  14.10190
   Y20       -0.13510   0.00022   0.00000  -0.00961  -0.00782  -0.14292
   Z20       -0.00061   0.00000   0.00000   0.00004   0.00004  -0.00057
   X21       -6.89547  -0.00056   0.00000  -0.01968  -0.01968  -6.91514
   Y21        1.08386   0.00170   0.00000   0.00692   0.00872   1.09258
   Z21       -0.00006  -0.00000   0.00000   0.00000  -0.00000  -0.00006
   X22       -3.55955   0.00013   0.00000  -0.01848  -0.01847  -3.57803
   Y22       -1.69559  -0.00210   0.00000   0.00832   0.01011  -1.68548
   Z22        0.00010  -0.00001   0.00000  -0.00003  -0.00004   0.00006
   X23       -7.86652   0.00523   0.00000  -0.00078  -0.00078  -7.86730
   Y23       -1.39200  -0.00287   0.00000  -0.00367  -0.00188  -1.39388
   Z23       -0.00013   0.00000   0.00000   0.00001   0.00000  -0.00013
   X24       -8.54010   0.00285   0.00000  -0.01432  -0.01432  -8.55442
   Y24        3.14115   0.00018   0.00000   0.00337   0.00517   3.14632
   Z24       -0.00009  -0.00000   0.00000   0.00000   0.00000  -0.00009
   X25      -10.44721   0.00191   0.00000   0.00515   0.00515 -10.44206
   Y25       -1.89303  -0.00042   0.00000  -0.00514  -0.00335  -1.89638
   Z25       -0.00020   0.00000   0.00000   0.00002   0.00002  -0.00019
   X26      -11.12984  -0.00307   0.00000  -0.01275  -0.01275 -11.14259
   Y26        2.64604  -0.00151   0.00000  -0.00478  -0.00299   2.64305
   Z26       -0.00018  -0.00000   0.00000   0.00001   0.00001  -0.00017
   X27       -7.86143   0.00014   0.00000  -0.01265  -0.01265  -7.87408
   Y27        5.07396  -0.00073   0.00000   0.00088   0.00267   5.07664
   Z27       -0.00004   0.00000   0.00000   0.00000   0.00000  -0.00004
   X28      -12.07686   0.00185   0.00000   0.00207   0.00207 -12.07479
   Y28        0.17796   0.00203   0.00000  -0.00588  -0.00408   0.17387
   Z28       -0.00023  -0.00000   0.00000   0.00002   0.00001  -0.00021
   X29      -11.16742   0.00052   0.00000   0.01206   0.01206 -11.15536
   Y29       -3.81551   0.00038   0.00000  -0.00610  -0.00431  -3.81982
   Z29       -0.00021  -0.00000   0.00000   0.00002   0.00002  -0.00019
   X30      -12.45099   0.00139   0.00000  -0.00969  -0.00969 -12.46068
   Y30        4.22102  -0.00052   0.00000  -0.00704  -0.00525   4.21577
   Z30       -0.00021   0.00000   0.00000   0.00002   0.00002  -0.00019
   X31      -14.10472   0.00003   0.00000   0.00283   0.00283 -14.10189
   Y31       -0.13512   0.00022   0.00000  -0.00961  -0.00782  -0.14294
   Z31       -0.00028   0.00000   0.00000   0.00002   0.00002  -0.00026
   X32       -4.28434  -0.00571   0.00000  -0.02890  -0.02890  -4.31324
   Y32        0.82304   0.01482   0.00000   0.02029   0.02209   0.84512
   Z32        0.00004   0.00000   0.00000  -0.00001  -0.00001   0.00002
   X33       -5.78882  -0.00777   0.00000  -0.01484  -0.01484  -5.80366
   Y33       -2.99735  -0.00489   0.00000  -0.00757  -0.00578  -3.00313
   Z33       -0.00007   0.00000   0.00000  -0.00001  -0.00001  -0.00009
   X34        4.28435   0.00571   0.00000   0.02890   0.02890   4.31325
   Y34        0.82304   0.01482   0.00000   0.02029   0.02209   0.84513
   Z34        0.00019   0.00000   0.00000  -0.00004  -0.00005   0.00014
   X35        5.78883   0.00777   0.00000   0.01484   0.01484   5.80367
   Y35       -2.99734  -0.00489   0.00000  -0.00757  -0.00578  -3.00312
   Z35       -0.00010   0.00000   0.00000   0.00000  -0.00001  -0.00010
   X36        5.99263  -0.00051   0.00000   0.00322   0.00322   5.99585
   Y36       -5.70990   0.00175   0.00000  -0.00445  -0.00266  -5.71256
   Z36       -0.00000   0.00000   0.00000   0.00004   0.00003   0.00003
   X37        7.00048  -0.00048   0.00000  -0.00082  -0.00082   6.99966
   Y37       -6.37435   0.00023   0.00000  -0.00432  -0.00252  -6.37687
   Z37       -1.68383  -0.00010   0.00000  -0.00161  -0.00161  -1.68544
   X38        6.99969  -0.00048   0.00000  -0.00083  -0.00083   6.99886
   Y38       -6.37434   0.00023   0.00000  -0.00428  -0.00249  -6.37682
   Z38        1.68431   0.00010   0.00000   0.00170   0.00169   1.68600
   X39        4.08771   0.00022   0.00000   0.00498   0.00498   4.09269
   Y39       -6.50051  -0.00073   0.00000  -0.00925  -0.00745  -6.50796
   Z39       -0.00045  -0.00000   0.00000   0.00004   0.00003  -0.00042
   X40       -5.99262   0.00051   0.00000  -0.00322  -0.00322  -5.99584
   Y40       -5.70991   0.00175   0.00000  -0.00445  -0.00266  -5.71257
   Z40        0.00007   0.00000   0.00000  -0.00000  -0.00001   0.00006
   X41       -6.99956   0.00048   0.00000   0.00080   0.00081  -6.99875
   Y41       -6.37433   0.00024   0.00000  -0.00430  -0.00250  -6.37683
   Z41        1.68446   0.00010   0.00000   0.00163   0.00163   1.68609
   X42       -7.00057   0.00048   0.00000   0.00084   0.00084  -6.99974
   Y42       -6.37438   0.00023   0.00000  -0.00430  -0.00250  -6.37688
   Z42       -1.68368  -0.00010   0.00000  -0.00167  -0.00168  -1.68535
   X43       -4.08769  -0.00022   0.00000  -0.00498  -0.00498  -4.09267
   Y43       -6.50051  -0.00073   0.00000  -0.00926  -0.00746  -6.50797
   Z43       -0.00050   0.00000   0.00000   0.00001   0.00000  -0.00050
   X44        0.00000   0.00000   0.00000   0.00000   0.00000   0.00000
   Y44       -2.20099  -0.01472   0.00000   0.00378   0.00558  -2.19542
   Z44        0.00007   0.00001   0.00000  -0.00004  -0.00004   0.00003
         Item               Value     Threshold  Converged?
 Maximum Force            0.033024     0.000450     NO 
 RMS     Force            0.004555     0.000300     NO 
 Maximum Displacement     0.056832     0.001800     NO 
 RMS     Displacement     0.010423     0.001200     NO 
 Predicted change in Energy=-1.839884D-03
 GradGradGradGradGradGradGradGradGradGradGradGradGradGradGradGradGradGrad

 Unable to Open any file for archive entry.
 1\1\GINC-X11P1N5\Force\UPBE1PBE\GenECP\C22H17Co1N4(3)\MAYUMIAO\17-Jul-
 2024\0\\# pbe1pbe em=gd3bj genecp g09default scf=(xqc,maxcycle=64) for
 ce guess=read nosymm\\Title Card\\0,3\C,0.00000328,0.64009167,0.000126
 24\C,-1.19745024,1.35941639,0.00004881\C,-1.22554372,2.75011219,-0.000
 00387\C,0.0000021,3.42935266,0.00001458\C,1.22554827,2.75011184,0.0000
 4692\C,1.1974552,1.35941533,0.0000947\H,-2.14710929,3.32240057,-0.0000
 4838\H,0.0000012,4.51688404,-0.00001063\H,2.14711143,3.32240095,0.0000
 4788\C,3.64892865,0.57356365,-0.00002058\C,1.88364095,-0.89726606,0.00
 011634\C,4.16278652,-0.73660908,-0.00011153\C,4.51922649,1.6622303,-0.
 00005042\C,5.52843187,-1.00174084,-0.0002089\C,5.8896578,1.40022999,-0
 .00016709\H,4.16009028,2.68503093,0.00001435\C,6.39080424,0.09417974,-
 0.00023938\H,5.90955025,-2.01907356,-0.00025147\H,6.5887805,2.23367538
 ,-0.00019692\H,7.46390003,-0.07149113,-0.00032121\C,-3.6489248,0.57355
 636,-0.00003227\C,-1.88363462,-0.89726942,0.00005126\C,-4.16278341,-0.
 73661414,-0.0000691\C,-4.51922635,1.66222565,-0.00004799\C,-5.52842554
 ,-1.00174967,-0.00010631\C,-5.88965629,1.40022206,-0.00009528\H,-4.160
 09013,2.6850252,-0.00002066\C,-6.39080011,0.09417191,-0.00011982\H,-5.
 9095438,-2.01908175,-0.00011173\H,-6.58878008,2.2336657,-0.00010994\H,
 -7.46389546,-0.07150212,-0.00014915\N,-2.26717583,0.43553154,0.0000188
 8\N,-3.06331083,-1.58612931,-0.00003933\N,2.26717948,0.43553582,0.0001
 0103\N,3.06331914,-1.5861248,-0.00005241\C,3.17116563,-3.02155024,-0.0
 0000056\H,3.70449292,-3.37316043,-0.89104184\H,3.70407584,-3.37315296,
 0.89129985\H,2.16312164,-3.43992102,-0.00023889\C,-3.17115695,-3.02155
 356,0.00003759\H,-3.70400509,-3.37314831,0.89137868\H,-3.70454304,-3.3
 7317723,-0.89096282\H,-2.16311295,-3.43992169,-0.00026585\Co,0.0000008
 1,-1.16471564,0.00003713\\Version=ES64L-G16RevC.01\HF=-1212.1354385\S2
 =2.130956\S2-1=0.\S2A=2.003049\RMSD=2.610e-10\RMSF=4.555e-03\Dipole=-0
 .0000087,-1.2910485,-0.0001726\Quadrupole=8.2317625,11.4308707,-19.662
 6332,-0.000011,-0.0002964,0.0007566\PG=C01 [X(C22H17Co1N4)]\\@
 The archive entry for this job was punched.


 MAN IS THE MEASURE OF ALL THINGS.
  -- PROTAGORAS (5TH CENTURY B.C.)
 Job cpu time:       0 days  0 hours 43 minutes 26.6 seconds.
 Elapsed time:       0 days  0 hours  0 minutes 47.3 seconds.
 File lengths (MBytes):  RWF=    184 Int=      0 D2E=      0 Chk=     72 Scr=      1
 Normal termination of Gaussian 16 at Wed Jul 17 20:55:18 2024.
