 Entering Gaussian System, Link 0=g16
 Input=JOBS/15_B.gjf
 Output=JOBS/15_B.log
 Initial command:
 /data/app/gaussian/C01-avx2//g16/l1.exe "/tmp/Gau-2059435.inp" -scrdir="/tmp/"
 Entering Link 1 = /data/app/gaussian/C01-avx2//g16/l1.exe PID=   2059436.
  
 Copyright (c) 1988-2019, Gaussian, Inc.  All Rights Reserved.
  
 This is part of the Gaussian(R) 16 program.  It is based on
 the Gaussian(R) 09 system (copyright 2009, Gaussian, Inc.),
 the Gaussian(R) 03 system (copyright 2003, Gaussian, Inc.),
 the Gaussian(R) 98 system (copyright 1998, Gaussian, Inc.),
 the Gaussian(R) 94 system (copyright 1995, Gaussian, Inc.),
 the Gaussian 92(TM) system (copyright 1992, Gaussian, Inc.),
 the Gaussian 90(TM) system (copyright 1990, Gaussian, Inc.),
 the Gaussian 88(TM) system (copyright 1988, Gaussian, Inc.),
 the Gaussian 86(TM) system (copyright 1986, Carnegie Mellon
 University), and the Gaussian 82(TM) system (copyright 1983,
 Carnegie Mellon University). Gaussian is a federally registered
 trademark of Gaussian, Inc.
  
 This software contains proprietary and confidential information,
 including trade secrets, belonging to Gaussian, Inc.
  
 This software is provided under written license and may be
 used, copied, transmitted, or stored only in accord with that
 written license.
  
 The following legend is applicable only to US Government
 contracts under FAR:
  
                    RESTRICTED RIGHTS LEGEND
  
 Use, reproduction and disclosure by the US Government is
 subject to restrictions as set forth in subparagraphs (a)
 and (c) of the Commercial Computer Software - Restricted
 Rights clause in FAR 52.227-19.
  
 Gaussian, Inc.
 340 Quinnipiac St., Bldg. 40, Wallingford CT 06492
  
  
 ---------------------------------------------------------------
 Warning -- This program may not be used in any manner that
 competes with the business of Gaussian, Inc. or will provide
 assistance to any competitor of Gaussian, Inc.  The licensee
 of this program is prohibited from giving any competitor of
 Gaussian, Inc. access to this program.  By using this program,
 the user acknowledges that Gaussian, Inc. is engaged in the
 business of creating and licensing software in the field of
 computational chemistry and represents and warrants to the
 licensee that it is not a competitor of Gaussian, Inc. and that
 it will not use this program in any manner prohibited above.
 ---------------------------------------------------------------
  

 Cite this work as:
 Gaussian 16, Revision C.01,
 M. J. Frisch, G. W. Trucks, H. B. Schlegel, G. E. Scuseria, 
 M. A. Robb, J. R. Cheeseman, G. Scalmani, V. Barone, 
 G. A. Petersson, H. Nakatsuji, X. Li, M. Caricato, A. V. Marenich, 
 J. Bloino, B. G. Janesko, R. Gomperts, B. Mennucci, H. P. Hratchian, 
 J. V. Ortiz, A. F. Izmaylov, J. L. Sonnenberg, D. Williams-Young, 
 F. Ding, F. Lipparini, F. Egidi, J. Goings, B. Peng, A. Petrone, 
 T. Henderson, D. Ranasinghe, V. G. Zakrzewski, J. Gao, N. Rega, 
 G. Zheng, W. Liang, M. Hada, M. Ehara, K. Toyota, R. Fukuda, 
 J. Hasegawa, M. Ishida, T. Nakajima, Y. Honda, O. Kitao, H. Nakai, 
 T. Vreven, K. Throssell, J. A. Montgomery, Jr., J. E. Peralta, 
 F. Ogliaro, M. J. Bearpark, J. J. Heyd, E. N. Brothers, K. N. Kudin, 
 V. N. Staroverov, T. A. Keith, R. Kobayashi, J. Normand, 
 K. Raghavachari, A. P. Rendell, J. C. Burant, S. S. Iyengar, 
 J. Tomasi, M. Cossi, J. M. Millam, M. Klene, C. Adamo, R. Cammi, 
 J. W. Ochterski, R. L. Martin, K. Morokuma, O. Farkas, 
 J. B. Foresman, and D. J. Fox, Gaussian, Inc., Wallingford CT, 2019.
 
 ******************************************
 Gaussian 16:  ES64L-G16RevC.01  3-Jul-2019
                17-Jul-2024 
 ******************************************
 %chk=b.chk
 %nprocshared=56
 Will use up to   56 processors via shared memory.
 %mem=96gb
 ----------------------------------------------------------------------
 # pbe1pbe em=gd3bj genecp g09default scf=(xqc,maxcycle=64) force guess
 =read nosymm
 ----------------------------------------------------------------------
 1/10=7,30=1,38=1,158=3,167=1/1,3;
 2/12=2,15=1,17=6,18=5,40=1/2;
 3/5=7,11=2,16=1,17=8,25=1,27=10,30=1,71=1,74=-13,75=-4,116=-2,124=41,158=3/1,2,3;
 4/5=1,60=-1/1;
 5/5=2,7=64,8=3,13=1,38=6,87=10/2,8;
 6/7=2,8=2,9=2,10=2,28=1,87=10/1;
 7/29=1,30=1,87=10/1,2,3,16;
 1/10=7,30=1,158=3,167=1/3;
 99//99;
 Using 2006 physical constants.
 ----------
 Title Card
 ----------
 Symbolic Z-matrix:
 Charge =  0 Multiplicity = 3
 6                     0.        0.69217   0.00013 
 6                    -1.23431   1.35739   0.00004 
 6                    -1.23963   2.74638  -0.00001 
 6                     0.        3.40799   0.00001 
 6                     1.23963   2.74638   0.00004 
 6                     1.23431   1.35739   0.00008 
 1                    -2.15448   3.32703  -0.00005 
 1                     0.        4.49589  -0.00001 
 1                     2.15448   3.32703   0.00005 
 6                     3.66165   0.57916  -0.00002 
 6                     1.88809  -0.89896   0.00011 
 6                     4.1658   -0.73779  -0.0001 
 6                     4.52551   1.66368  -0.00005 
 6                     5.52992  -1.0015   -0.0002 
 6                     5.90205   1.40089  -0.00017 
 1                     4.16224   2.68476   0.00001 
 6                     6.39457   0.09868  -0.00024 
 1                     5.90886  -2.01933  -0.00025 
 1                     6.59649   2.23657  -0.0002 
 1                     7.46652  -0.07122  -0.00032 
 6                    -3.66164   0.57915  -0.00003 
 6                    -1.88808  -0.89897   0.00006 
 6                    -4.1658   -0.7378   -0.00007 
 6                    -4.52551   1.66368  -0.00005 
 6                    -5.52992  -1.00151  -0.0001 
 6                    -5.90205   1.40088  -0.0001 
 1                    -4.16224   2.68476  -0.00002 
 6                    -6.39456   0.09867  -0.00012 
 1                    -5.90885  -2.01934  -0.00011 
 1                    -6.59649   2.23656  -0.00011 
 1                    -7.46651  -0.07123  -0.00015 
 7                    -2.27798   0.45254   0.00002 
 7                    -3.07701  -1.59123  -0.00004 
 7                     2.27798   0.45255   0.00009 
 7                     3.07702  -1.59123  -0.00005 
 6                     3.17773  -3.02213   0. 
 1                     3.70566  -3.38066  -0.89235 
 1                     3.70523  -3.38066   0.89262 
 1                     2.16972  -3.44292  -0.00025 
 6                    -3.17772  -3.02213   0.00004 
 1                    -3.70516  -3.38065   0.8927 
 1                    -3.70571  -3.38068  -0.89228 
 1                    -2.16971  -3.44292  -0.00027 
 27                    0.       -1.18325   0.00005 
 

 GradGradGradGradGradGradGradGradGradGradGradGradGradGradGradGradGradGrad
 Berny optimization.
 Initialization pass.
 Trust Radius=3.00D-01 FncErr=1.00D-07 GrdErr=1.00D-07 EigMax=2.50D+02 EigMin=1.00D-04
 Number of steps in this run=      2 maximum allowed number of steps=      2.
 GradGradGradGradGradGradGradGradGradGradGradGradGradGradGradGradGradGrad

                          Input orientation:                          
 ---------------------------------------------------------------------
 Center     Atomic      Atomic             Coordinates (Angstroms)
 Number     Number       Type             X           Y           Z
 ---------------------------------------------------------------------
      1          6           0        0.000002    0.692172    0.000126
      2          6           0       -1.234306    1.357391    0.000042
      3          6           0       -1.239631    2.746376   -0.000006
      4          6           0        0.000002    3.407992    0.000014
      5          6           0        1.239634    2.746376    0.000044
      6          6           0        1.234311    1.357391    0.000085
      7          1           0       -2.154481    3.327033   -0.000047
      8          1           0        0.000001    4.495887   -0.000011
      9          1           0        2.154483    3.327034    0.000048
     10          6           0        3.661645    0.579158   -0.000022
     11          6           0        1.888086   -0.898964    0.000113
     12          6           0        4.165802   -0.737793   -0.000102
     13          6           0        4.525509    1.663684   -0.000052
     14          6           0        5.529920   -1.001499   -0.000203
     15          6           0        5.902053    1.400886   -0.000169
     16          1           0        4.162245    2.684762    0.000013
     17          6           0        6.394570    0.098678   -0.000241
     18          1           0        5.908857   -2.019332   -0.000249
     19          1           0        6.596489    2.236572   -0.000196
     20          1           0        7.466519   -0.071224   -0.000324
     21          6           0       -3.661643    0.579153   -0.000035
     22          6           0       -1.888082   -0.898966    0.000064
     23          6           0       -4.165795   -0.737798   -0.000068
     24          6           0       -4.525506    1.663677   -0.000050
     25          6           0       -5.529916   -1.001508   -0.000104
     26          6           0       -5.902053    1.400878   -0.000097
     27          1           0       -4.162245    2.684757   -0.000022
     28          6           0       -6.394564    0.098669   -0.000121
     29          1           0       -5.908849   -2.019340   -0.000109
     30          1           0       -6.596488    2.236562   -0.000109
     31          1           0       -7.466515   -0.071235   -0.000151
     32          7           0       -2.277978    0.452544    0.000016
     33          7           0       -3.077009   -1.591232   -0.000041
     34          7           0        2.277982    0.452547    0.000092
     35          7           0        3.077017   -1.591228   -0.000050
     36          6           0        3.177731   -3.022125    0.000003
     37          1           0        3.705657   -3.380660   -0.892355
     38          1           0        3.705233   -3.380661    0.892619
     39          1           0        2.169717   -3.442916   -0.000248
     40          6           0       -3.177722   -3.022128    0.000041
     41          1           0       -3.705162   -3.380653    0.892698
     42          1           0       -3.705708   -3.380678   -0.892275
     43          1           0       -2.169708   -3.442917   -0.000275
     44         27           0        0.000003   -1.183246    0.000051
 ---------------------------------------------------------------------
                    Distance matrix (angstroms):
                    1          2          3          4          5
     1  C    0.000000
     2  C    1.402154   0.000000
     3  C    2.399260   1.388995   0.000000
     4  C    2.715821   2.393425   1.405143   0.000000
     5  C    2.399259   2.837192   2.479265   1.405142   0.000000
     6  C    1.402154   2.468617   2.837193   2.393425   1.388995
     7  H    3.403571   2.173985   1.083565   2.156004   3.443426
     8  H    3.803715   3.372487   2.144173   1.087894   2.144173
     9  H    3.403570   3.919616   3.443425   2.156002   1.083565
    10  C    3.663387   4.957418   5.359043   4.627087   3.250073
    11  C    2.469124   3.852333   4.803240   4.702630   3.702565
    12  C    4.404394   5.792320   6.431029   5.877195   4.549933
    13  C    4.628612   5.767953   5.865924   4.850033   3.459653
    14  C    5.783469   7.163737   7.737790   7.072737   5.696764
    15  C    5.944449   7.136492   7.267324   6.233994   4.852679
    16  H    4.614616   5.557398   5.402227   4.224610   2.923260
    17  C    6.422051   7.732019   8.080305   7.200143   5.795142
    18  H    6.501293   7.901078   8.591441   8.023118   6.671853
    19  H    6.774866   7.879995   7.852686   6.699692   5.381059
    20  H    7.505441   8.817330   9.150733   8.237343   6.834688
    21  C    3.663389   2.549043   3.250076   4.627092   5.359046
    22  C    2.469125   2.349164   3.702567   4.702632   4.803241
    23  C    4.404393   3.603255   4.549934   5.877197   6.431029
    24  C    4.628612   3.305421   3.459655   4.850037   5.865925
    25  C    5.783472   4.900680   5.696769   7.072743   7.737793
    26  C    5.944453   4.667949   4.852684   6.234000   7.267328
    27  H    4.614617   3.214766   2.923263   4.224614   5.402230
    28  C    6.422050   5.311557   5.795143   7.200146   8.080305
    29  H    6.501294   5.766599   6.671855   8.023121   8.591441
    30  H    6.774868   5.433777   5.381062   6.699697   7.852689
    31  H    7.505442   6.393856   6.834691   8.237347   9.150735
    32  N    2.290549   1.381303   2.517902   3.731470   4.199435
    33  N    3.831701   3.477058   4.710711   5.870285   6.119497
    34  N    2.290548   3.626970   4.199434   3.731467   2.517899
    35  N    3.831701   5.223204   6.119498   5.870283   4.710709
    36  C    4.888145   6.216610   7.265583   7.172473   6.085378
    37  H    5.578204   6.902807   7.924186   7.785499   6.664699
    38  H    5.577925   6.902527   7.923954   7.785325   6.664567
    39  H    4.669755   5.884754   7.066186   7.186279   6.258785
    40  C    4.888144   4.791352   6.085379   7.172474   7.265581
    41  H    5.577887   5.417659   6.664552   7.785296   7.923908
    42  H    5.578241   5.417874   6.664718   7.785532   7.924230
    43  H    4.669754   4.890597   6.258785   7.186279   7.066184
    44  Co   1.875417   2.824598   4.120512   4.591238   4.120511
                    6          7          8          9         10
     6  C    0.000000
     7  H    3.919617   0.000000
     8  H    3.372488   2.451125   0.000000
     9  H    2.173985   4.308964   2.451124   0.000000
    10  C    2.549039   6.432585   5.361754   3.134065   0.000000
    11  C    2.349162   5.848197   5.715704   4.234386   2.308756
    12  C    3.603254   7.514572   6.689193   4.535220   1.410154
    13  C    3.305420   6.883967   5.338689   2.896290   1.386527
    14  C    4.900676   8.819649   7.797516   5.489059   2.447228
    15  C    4.667945   8.283586   6.664327   4.213588   2.386349
    16  H    3.214764   6.349295   4.539212   2.107990   2.164294
    17  C    5.311557   9.138302   7.760539   5.329223   2.774840
    18  H    5.766597   9.674763   8.795605   6.532913   3.435420
    19  H    5.433776   8.818650   6.972673   4.573896   3.370509
    20  H    6.393853  10.203519   8.752565   6.306019   3.860059
    21  C    4.957421   3.134068   5.361757   6.432587   7.323289
    22  C    3.852335   4.234388   5.715706   5.848197   5.743198
    23  C    5.792319   4.535222   6.689194   7.514571   7.937455
    24  C    5.767955   2.896293   5.338691   6.883968   8.258670
    25  C    7.163740   5.489064   7.797521   8.819652   9.326484
    26  C    7.136496   4.213593   6.664332   8.283589   9.598935
    27  H    5.557401   2.107992   4.539216   6.349297   8.102271
    28  C    7.732019   5.329225   7.760540   9.138301  10.067682
    29  H    7.901079   6.532916   8.795607   9.674763   9.916983
    30  H    7.879997   4.573899   6.972677   8.818652  10.391164
    31  H    8.817331   6.306023   8.752568  10.203520  11.147150
    32  N    3.626971   2.877141   4.640884   5.282935   5.940972
    33  N    5.223204   5.004037   6.820631   7.180379   7.079552
    34  N    1.381301   5.282935   4.640882   2.877138   1.389444
    35  N    3.477056   7.180380   6.820630   5.004035   2.247746
    36  C    4.791351   8.291219   8.162014   6.431085   3.633650
    37  H    5.417853   8.951569   8.750323   6.942311   4.059353
    38  H    5.417676   8.951328   8.750174   6.942239   4.059418
    39  H    4.890597   8.033113   8.229961   6.769967   4.289863
    40  C    6.216609   6.431087   8.162014   8.291217   7.729567
    41  H    6.902479   6.942238   8.750145   8.951275   8.411118
    42  H    6.902854   6.942317   8.750353   8.951618   8.411558
    43  H    5.884752   6.769967   8.229960   8.033111   7.083909
    44  Co   2.824598   4.998442   5.679133   4.998440   4.063704
                   11         12         13         14         15
    11  C    0.000000
    12  C    2.283411   0.000000
    13  C    3.677385   2.428267   0.000000
    14  C    3.643277   1.389373   2.848165   0.000000
    15  C    4.626147   2.754726   1.401405   2.431036   0.000000
    16  H    4.244394   3.422557   1.083771   3.931800   2.162237
    17  C    4.615592   2.380566   2.437752   1.399290   1.392235
    18  H    4.173946   2.163465   3.934242   1.086083   3.420225
    19  H    5.656911   3.841235   2.148758   3.409204   1.086560
    20  H    5.639509   3.367350   3.414593   2.148448   2.148176
    21  C    5.743198   7.937459   8.258672   9.326484   9.598934
    22  C    3.776168   6.056029   6.906614   7.418710   8.122531
    23  C    6.056026   8.331597   9.016977   9.699300  10.292499
    24  C    6.906613   9.016978   9.051015  10.402632  10.430870
    25  C    7.418711   9.699304  10.402635  11.059836  11.681670
    26  C    8.122533  10.292503  10.430873  11.681670  11.804106
    27  H    7.032038   9.003899   8.747551  10.369500  10.145857
    28  C    8.342516  10.593441  11.031648  11.975128  12.365378
    29  H    7.877020  10.155834  11.065283  11.483964  12.296152
    30  H    9.045415  11.165737  11.136742  12.551288  12.526448
    31  H    9.391150  11.651398  12.116871  13.029685  13.449377
    32  N    4.379802   6.552801   6.910448   7.942135   8.234820
    33  N    5.013123   7.292919   8.269991   8.627109   9.464477
    34  N    1.406627   2.231765   2.553082   3.562212   3.746096
    35  N    1.375785   1.383403   3.562665   2.522799   4.115042
    36  C    2.484150   2.488866   4.875788   3.100922   5.194704
    37  H    3.202948   2.827117   5.187848   3.127982   5.336977
    38  H    3.202719   2.827335   5.187979   3.128422   5.337254
    39  H    2.559494   3.361851   5.623799   4.153489   6.114961
    40  C    5.492744   7.690613   9.016463   8.939014  10.099771
    41  H    6.183843   8.350681   9.694652   9.578329  10.768422
    42  H    6.184318   8.351136   9.695080   9.578784  10.768856
    43  H    4.789300   6.888859   8.420410   8.077425   9.413594
    44  Co   1.909365   4.189547   5.346514   5.532902   6.442975
                   16         17         18         19         20
    16  H    0.000000
    17  C    3.416300   0.000000
    18  H    5.017883   2.172990   0.000000
    19  H    2.475161   2.147408   4.311097   0.000000
    20  H    4.302753   1.085330   2.494281   2.466348   0.000000
    21  C    8.102272  10.067685   9.916985  10.391166  11.147151
    22  C    7.032038   8.342519   7.877022   9.045415   9.391151
    23  C    9.003897  10.593442  10.155833  11.165735  11.651397
    24  C    8.747550  11.031650  11.065283  11.136741  12.116870
    25  C   10.369502  11.975132  11.483967  12.551290  13.029687
    26  C   10.145859  12.365382  12.296155  12.526450  13.449379
    27  H    8.324489  10.868953  11.115554  10.768065  11.950881
    28  C   10.868951  12.789134  12.484394  13.165793  13.862124
    29  H   11.115553  12.484396  11.817706  13.209704  13.516495
    30  H   10.768065  13.165795  13.209704  13.192978  14.251107
    31  H   11.950881  13.862126  13.516495  14.251107  14.933033
    32  N    6.816103   8.679764   8.551867   9.052012   9.758563
    33  N    8.407789   9.621154   8.996057  10.403300  10.652530
    34  N    2.921169   4.131770   4.392430   4.672499   5.214907
    35  N    4.411553   3.723163   2.864017   5.199878   4.645228
    36  C    5.791185   4.481904   2.909405   6.272304   5.205912
    37  H    6.147693   4.486860   2.739188   6.380137   5.088434
    38  H    6.147760   4.487264   2.739778   6.380422   5.088909
    39  H    6.443492   5.512918   4.000969   7.200895   6.278886
    40  C    9.297511  10.068178   9.141745  11.099060  11.045710
    41  H    9.974078  10.719500   9.750892  11.767519  11.685729
    42  H    9.974488  10.719947   9.751349  11.767946  11.686176
    43  H    8.811474   9.267673   8.203036  10.445229  10.209074
    44  Co   5.682054   6.521795   5.967712   7.430261   7.548871
                   21         22         23         24         25
    21  C    0.000000
    22  C    2.308757   0.000000
    23  C    1.410152   2.283408   0.000000
    24  C    1.386525   3.677383   2.428266   0.000000
    25  C    2.447230   3.643278   1.389377   2.848166   0.000000
    26  C    2.386350   4.626149   2.754728   1.401408   2.431038
    27  H    2.164294   4.244394   3.422556   1.083772   3.931803
    28  C    2.774837   4.615589   2.380565   2.437751   1.399287
    29  H    3.435419   4.173944   2.163467   3.934242   1.086082
    30  H    3.370507   5.656910   3.841235   2.148759   3.409204
    31  H    3.860058   5.639508   3.367351   3.414594   2.148446
    32  N    1.389446   1.406626   2.231763   2.553082   3.562214
    33  N    2.247748   1.375784   1.383404   3.562665   2.522802
    34  N    5.940974   4.379803   6.552800   6.910447   7.942138
    35  N    7.079555   5.013126   7.292919   8.269992   8.627112
    36  C    7.729570   5.492747   7.690613   9.016464   8.939017
    37  H    8.411509   6.184265   8.351087   9.695030   9.578742
    38  H    8.411173   6.183901   8.350730   9.694703   9.578377
    39  H    7.083912   4.789302   6.888859   8.420411   8.077427
    40  C    3.633650   2.484148   2.488866   4.875787   3.100924
    41  H    4.059425   3.202710   2.827348   5.187990   3.128443
    42  H    4.059347   3.202956   2.827106   5.187837   3.127964
    43  H    4.289863   2.559492   3.361850   5.623797   4.153490
    44  Co   4.063706   1.909366   4.189547   5.346514   5.532905
                   26         27         28         29         30
    26  C    0.000000
    27  H    2.162239   0.000000
    28  C    1.392234   3.416299   0.000000
    29  H    3.420225   5.017884   2.172989   0.000000
    30  H    1.086558   2.475161   2.147407   4.311096   0.000000
    31  H    2.148175   4.302754   1.085332   2.494281   2.466347
    32  N    3.746099   2.921170   4.131769   4.392430   4.672500
    33  N    4.115045   4.411555   3.723162   2.864018   5.199879
    34  N    8.234822   6.816104   8.679763   8.551867   9.052012
    35  N    9.464481   8.407791   9.621153   8.996058  10.403301
    36  C   10.099775   9.297513  10.068178   9.141746  11.099061
    37  H   10.768813   9.974438  10.719901   9.751309  11.767901
    38  H   10.768473   9.974132  10.719544   9.750935  11.767566
    39  H    9.413598   8.811476   9.267672   8.203036  10.445230
    40  C    5.194706   5.791185   4.481903   2.909406   6.272303
    41  H    5.337271   6.147770   4.487281   2.739802   6.380437
    42  H    5.336965   6.147686   4.486841   2.739167   6.380122
    43  H    6.114961   6.443492   5.512916   4.000968   7.200893
    44  Co   6.442978   5.682055   6.521794   5.967712   7.430262
                   31         32         33         34         35
    31  H    0.000000
    32  N    5.214907   0.000000
    33  N    4.645229   2.194418   0.000000
    34  N    9.758563   4.555959   5.731750   0.000000
    35  N   10.652532   5.731751   6.154026   2.194419   0.000000
    36  C   11.045711   6.468237   6.416325   3.589276   1.434438
    37  H   11.686135   7.161960   7.071269   4.186669   2.096059
    38  H   11.685773   7.161635   7.070905   4.186542   2.096088
    39  H   10.209074   5.912411   5.563890   3.896967   2.062023
    40  C    5.205912   3.589274   1.434436   6.468236   6.416325
    41  H    5.088930   4.186542   2.096089   7.161577   7.070855
    42  H    5.088415   4.186668   2.096058   7.162016   7.071319
    43  H    6.278885   3.896965   2.062021   5.912410   5.563890
    44  Co   7.548871   2.804462   3.103942   2.804462   3.103943
                   36         37         38         39         40
    36  C    0.000000
    37  H    1.097067   0.000000
    38  H    1.097073   1.784973   0.000000
    39  H    1.092317   1.777313   1.777328   0.000000
    40  C    6.355453   6.950239   6.949842   5.363970   0.000000
    41  H    6.949796   7.622772   7.410395   5.942679   1.097073
    42  H    6.950284   7.411365   7.622853   5.943080   1.097067
    43  H    5.363970   5.943030   5.942732   4.339426   1.092316
    44  Co   3.671435   4.399646   4.399322   3.132694   3.671434
                   41         42         43         44
    41  H    0.000000
    42  H    1.784973   0.000000
    43  H    1.777328   1.777310   0.000000
    44  Co   4.399280   4.399687   3.132692   0.000000
 Symmetry turned off by external request.
 Stoichiometry    C22H17CoN4(3)
 Framework group  C1[X(C22H17CoN4)]
 Deg. of freedom   126
 Full point group                 C1      NOp   1
 Rotational constants (GHZ):           0.4698003           0.1015686           0.0836021
 General basis read from cards:  (5D, 7F)
 ======================================================================================================
                                       Pseudopotential Parameters
 ======================================================================================================
  Center     Atomic      Valence      Angular      Power
  Number     Number     Electrons     Momentum     of R      Exponent        Coefficient   SO-Coeffient
 ======================================================================================================
    1          6
                                   No pseudopotential on this center.
    2          6
                                   No pseudopotential on this center.
    3          6
                                   No pseudopotential on this center.
    4          6
                                   No pseudopotential on this center.
    5          6
                                   No pseudopotential on this center.
    6          6
                                   No pseudopotential on this center.
    7          1
                                   No pseudopotential on this center.
    8          1
                                   No pseudopotential on this center.
    9          1
                                   No pseudopotential on this center.
   10          6
                                   No pseudopotential on this center.
   11          6
                                   No pseudopotential on this center.
   12          6
                                   No pseudopotential on this center.
   13          6
                                   No pseudopotential on this center.
   14          6
                                   No pseudopotential on this center.
   15          6
                                   No pseudopotential on this center.
   16          1
                                   No pseudopotential on this center.
   17          6
                                   No pseudopotential on this center.
   18          1
                                   No pseudopotential on this center.
   19          1
                                   No pseudopotential on this center.
   20          1
                                   No pseudopotential on this center.
   21          6
                                   No pseudopotential on this center.
   22          6
                                   No pseudopotential on this center.
   23          6
                                   No pseudopotential on this center.
   24          6
                                   No pseudopotential on this center.
   25          6
                                   No pseudopotential on this center.
   26          6
                                   No pseudopotential on this center.
   27          1
                                   No pseudopotential on this center.
   28          6
                                   No pseudopotential on this center.
   29          1
                                   No pseudopotential on this center.
   30          1
                                   No pseudopotential on this center.
   31          1
                                   No pseudopotential on this center.
   32          7
                                   No pseudopotential on this center.
   33          7
                                   No pseudopotential on this center.
   34          7
                                   No pseudopotential on this center.
   35          7
                                   No pseudopotential on this center.
   36          6
                                   No pseudopotential on this center.
   37          1
                                   No pseudopotential on this center.
   38          1
                                   No pseudopotential on this center.
   39          1
                                   No pseudopotential on this center.
   40          6
                                   No pseudopotential on this center.
   41          1
                                   No pseudopotential on this center.
   42          1
                                   No pseudopotential on this center.
   43          1
                                   No pseudopotential on this center.
   44         27           17
                                      F and up 
                                                     2        1.0000000        0.00000000    0.00000000
                                      S - F
                                                     2       23.6600000      283.96056600    0.00000000
                                                     2       10.6100000       47.15684600    0.00000000
                                      P - F
                                                     2       25.0400000      182.21223600    0.00000000
                                                     2       10.4400000       35.23335200    0.00000000
                                      D - F
                                                     2       29.5400000      -26.47533300    0.00000000
                                                     2       10.1800000       -1.82578700    0.00000000
 ======================================================================================================
   441 basis functions,   871 primitive gaussians,   473 cartesian basis functions
    98 alpha electrons       96 beta electrons
       nuclear repulsion energy      2499.0238247756 Hartrees.
 NAtoms=   44 NActive=   44 NUniq=   44 SFac= 1.00D+00 NAtFMM=   60 NAOKFM=F Big=F
 Integral buffers will be    131072 words long.
 Raffenetti 2 integral format.
 Two-electron integral symmetry is turned off.
 Nuclear repulsion after empirical dispersion term =     2498.9645632793 Hartrees.
 One-electron integrals computed using PRISM.
   1 Symmetry operations used in ECPInt.
 ECPInt:  NShTT=   11781 NPrTT=   71406 LenC2=    9550 LenP2D=   32132.
 LDataN:  DoStor=T MaxTD1= 6 Len=  172
 NBasis=   441 RedAO= T EigKep=  3.47D-04  NBF=   441
 NBsUse=   441 1.00D-06 EigRej= -1.00D+00 NBFU=   441
 Initial guess from the checkpoint file:  "b.chk"
 B after Tr=     0.000000   -0.001417    0.000003
         Rot=    1.000000    0.000001    0.000000   -0.000000 Ang=   0.00 deg.
 Initial guess <Sx>= 0.0000 <Sy>= 0.0000 <Sz>= 1.0000 <S**2>= 2.1329 S= 1.0437
 Requested convergence on RMS density matrix=1.00D-08 within  64 cycles.
 Requested convergence on MAX density matrix=1.00D-06.
 Requested convergence on             energy=1.00D-06.
 No special actions if energy rises.
 EnCoef did     9 forward-backward iterations
 Restarting incremental Fock formation.
 SCF Done:  E(UPBE1PBE) =  -1212.13642803     A.U. after   33 cycles
            NFock= 33  Conv=0.25D-08     -V/T= 2.0552
 <Sx>= 0.0000 <Sy>= 0.0000 <Sz>= 1.0000 <S**2>= 2.1624 S= 1.0532
 <L.S>=  0.00000000000    
 Annihilation of the first spin contaminant:
 S**2 before annihilation     2.1624,   after     2.0037
 QCSCF skips out because SCF is already converged.

 **********************************************************************

            Population analysis using the SCF Density.

 **********************************************************************

 Alpha  occ. eigenvalues --  -14.45116 -14.45116 -14.44656 -14.44655 -10.27553
 Alpha  occ. eigenvalues --  -10.27553 -10.27265 -10.27264 -10.27249 -10.27249
 Alpha  occ. eigenvalues --  -10.27028 -10.27028 -10.26142 -10.26142 -10.23686
 Alpha  occ. eigenvalues --  -10.23686 -10.23525 -10.23525 -10.23037 -10.23037
 Alpha  occ. eigenvalues --  -10.22951 -10.22951 -10.22498 -10.22200 -10.22197
 Alpha  occ. eigenvalues --  -10.20015  -3.93716  -2.46374  -2.43713  -2.42888
 Alpha  occ. eigenvalues --   -1.05916  -1.05821  -0.96681  -0.96220  -0.88005
 Alpha  occ. eigenvalues --   -0.87621  -0.85546  -0.80150  -0.78788  -0.77619
 Alpha  occ. eigenvalues --   -0.77530  -0.75690  -0.75019  -0.72993  -0.72531
 Alpha  occ. eigenvalues --   -0.66628  -0.65204  -0.64352  -0.63810  -0.62858
 Alpha  occ. eigenvalues --   -0.61263  -0.58787  -0.57848  -0.56306  -0.53848
 Alpha  occ. eigenvalues --   -0.52990  -0.52010  -0.49693  -0.49605  -0.49209
 Alpha  occ. eigenvalues --   -0.48185  -0.47466  -0.47224  -0.46869  -0.45834
 Alpha  occ. eigenvalues --   -0.45720  -0.45180  -0.44786  -0.44761  -0.44043
 Alpha  occ. eigenvalues --   -0.42388  -0.42010  -0.41489  -0.38868  -0.38776
 Alpha  occ. eigenvalues --   -0.38608  -0.38173  -0.37377  -0.37252  -0.36785
 Alpha  occ. eigenvalues --   -0.36256  -0.34811  -0.34646  -0.33807  -0.32107
 Alpha  occ. eigenvalues --   -0.31730  -0.30330  -0.29682  -0.27142  -0.27025
 Alpha  occ. eigenvalues --   -0.26585  -0.25989  -0.24611  -0.23876  -0.22917
 Alpha  occ. eigenvalues --   -0.20824  -0.20569  -0.10003
 Alpha virt. eigenvalues --   -0.05869  -0.02310  -0.00044   0.00228   0.00310
 Alpha virt. eigenvalues --    0.02294   0.02939   0.03781   0.04404   0.05619
 Alpha virt. eigenvalues --    0.06404   0.07991   0.07997   0.09793   0.10234
 Alpha virt. eigenvalues --    0.12516   0.12954   0.13874   0.13885   0.15200
 Alpha virt. eigenvalues --    0.15277   0.15404   0.15912   0.16387   0.16550
 Alpha virt. eigenvalues --    0.16955   0.17714   0.17938   0.18200   0.18310
 Alpha virt. eigenvalues --    0.19350   0.19844   0.19942   0.20176   0.20983
 Alpha virt. eigenvalues --    0.21981   0.23025   0.23275   0.24210   0.25791
 Alpha virt. eigenvalues --    0.25890   0.26146   0.26263   0.27531   0.27823
 Alpha virt. eigenvalues --    0.27957   0.28862   0.29946   0.30965   0.31495
 Alpha virt. eigenvalues --    0.32828   0.33418   0.34230   0.34744   0.36547
 Alpha virt. eigenvalues --    0.37659   0.37981   0.39395   0.39777   0.41437
 Alpha virt. eigenvalues --    0.42033   0.44752   0.45213   0.46534   0.46679
 Alpha virt. eigenvalues --    0.48019   0.50693   0.50724   0.51726   0.52571
 Alpha virt. eigenvalues --    0.53924   0.54127   0.56270   0.56426   0.56470
 Alpha virt. eigenvalues --    0.56475   0.57433   0.57967   0.58542   0.58723
 Alpha virt. eigenvalues --    0.58789   0.59816   0.60579   0.61511   0.61572
 Alpha virt. eigenvalues --    0.61659   0.62922   0.62980   0.63076   0.63367
 Alpha virt. eigenvalues --    0.63561   0.63809   0.63932   0.64023   0.64600
 Alpha virt. eigenvalues --    0.65130   0.66072   0.66226   0.66946   0.67320
 Alpha virt. eigenvalues --    0.67419   0.67939   0.68657   0.71049   0.71847
 Alpha virt. eigenvalues --    0.71969   0.73866   0.75610   0.76234   0.76834
 Alpha virt. eigenvalues --    0.77182   0.78191   0.80101   0.80303   0.81361
 Alpha virt. eigenvalues --    0.81730   0.82430   0.83600   0.83852   0.83959
 Alpha virt. eigenvalues --    0.84562   0.85189   0.85745   0.86997   0.87180
 Alpha virt. eigenvalues --    0.87447   0.87884   0.89737   0.90758   0.90926
 Alpha virt. eigenvalues --    0.91262   0.91578   0.91621   0.93007   0.93460
 Alpha virt. eigenvalues --    0.93472   0.94144   0.95395   0.95637   0.96264
 Alpha virt. eigenvalues --    0.97372   0.97696   0.98185   0.98297   0.98534
 Alpha virt. eigenvalues --    1.00128   1.00349   1.01605   1.02181   1.02964
 Alpha virt. eigenvalues --    1.04063   1.04237   1.06132   1.07271   1.07425
 Alpha virt. eigenvalues --    1.08778   1.09104   1.09831   1.10911   1.14003
 Alpha virt. eigenvalues --    1.15226   1.16381   1.16685   1.18108   1.18640
 Alpha virt. eigenvalues --    1.19100   1.20817   1.23792   1.23953   1.24672
 Alpha virt. eigenvalues --    1.24923   1.26445   1.27198   1.28341   1.29129
 Alpha virt. eigenvalues --    1.30032   1.30349   1.31156   1.33338   1.33656
 Alpha virt. eigenvalues --    1.35312   1.36669   1.36858   1.38160   1.38943
 Alpha virt. eigenvalues --    1.40708   1.40904   1.42304   1.42461   1.45007
 Alpha virt. eigenvalues --    1.45441   1.45749   1.46611   1.47497   1.48307
 Alpha virt. eigenvalues --    1.49342   1.49542   1.49924   1.50343   1.50360
 Alpha virt. eigenvalues --    1.51415   1.52742   1.55226   1.57745   1.57790
 Alpha virt. eigenvalues --    1.60050   1.60488   1.63947   1.65138   1.66559
 Alpha virt. eigenvalues --    1.70387   1.71314   1.73565   1.74924   1.77435
 Alpha virt. eigenvalues --    1.79370   1.79975   1.80394   1.82460   1.83065
 Alpha virt. eigenvalues --    1.84728   1.86631   1.87165   1.87185   1.87695
 Alpha virt. eigenvalues --    1.88871   1.90111   1.91381   1.92438   1.93706
 Alpha virt. eigenvalues --    1.95163   1.95627   1.96633   1.97197   1.97870
 Alpha virt. eigenvalues --    1.98051   1.98937   1.99078   1.99833   1.99835
 Alpha virt. eigenvalues --    2.00852   2.01341   2.02109   2.03267   2.05178
 Alpha virt. eigenvalues --    2.07698   2.08337   2.10070   2.12588   2.13112
 Alpha virt. eigenvalues --    2.13904   2.14650   2.15878   2.16307   2.16432
 Alpha virt. eigenvalues --    2.17477   2.17601   2.19117   2.19278   2.20544
 Alpha virt. eigenvalues --    2.21026   2.21690   2.23101   2.24442   2.24613
 Alpha virt. eigenvalues --    2.24766   2.27132   2.27182   2.27687   2.27810
 Alpha virt. eigenvalues --    2.27923   2.27958   2.28394   2.29423   2.32825
 Alpha virt. eigenvalues --    2.36012   2.36589   2.40289   2.40619   2.40889
 Alpha virt. eigenvalues --    2.41962   2.43236   2.46132   2.46924   2.47057
 Alpha virt. eigenvalues --    2.51129   2.52406   2.56765   2.58071   2.58290
 Alpha virt. eigenvalues --    2.58794   2.59055   2.60953   2.63379   2.63478
 Alpha virt. eigenvalues --    2.65445   2.66913   2.67777   2.69026   2.70679
 Alpha virt. eigenvalues --    2.71567   2.72210   2.73742   2.75656   2.76112
 Alpha virt. eigenvalues --    2.76592   2.76722   2.78569   2.78767   2.83183
 Alpha virt. eigenvalues --    2.86876   2.87075   2.87264   2.89528   2.92450
 Alpha virt. eigenvalues --    2.93324   2.96472   2.97678   2.98893   3.02137
 Alpha virt. eigenvalues --    3.06155   3.07826   3.16395   3.19197   3.19804
 Alpha virt. eigenvalues --    3.27060   3.40790   3.43430   3.47434   3.49996
 Alpha virt. eigenvalues --    3.52121   3.58689   5.55193   5.56248   5.57572
 Alpha virt. eigenvalues --    5.60218   5.61079   5.62011   5.63934  45.69743
 Alpha virt. eigenvalues --   45.91347  45.95087  63.00681
  Beta  occ. eigenvalues --  -14.44978 -14.44978 -14.44628 -14.44627 -10.27335
  Beta  occ. eigenvalues --  -10.27334 -10.27274 -10.27273 -10.27254 -10.27253
  Beta  occ. eigenvalues --  -10.27064 -10.27063 -10.25994 -10.25994 -10.23629
  Beta  occ. eigenvalues --  -10.23628 -10.23500 -10.23500 -10.23040 -10.23040
  Beta  occ. eigenvalues --  -10.22921 -10.22921 -10.22348 -10.22303 -10.22280
  Beta  occ. eigenvalues --  -10.20338  -3.87077  -2.38708  -2.38059  -2.34806
  Beta  occ. eigenvalues --   -1.05702  -1.05606  -0.96471  -0.95994  -0.87948
  Beta  occ. eigenvalues --   -0.87545  -0.85512  -0.80052  -0.78733  -0.77555
  Beta  occ. eigenvalues --   -0.77455  -0.75536  -0.74817  -0.72993  -0.72577
  Beta  occ. eigenvalues --   -0.66647  -0.64930  -0.64115  -0.63821  -0.62787
  Beta  occ. eigenvalues --   -0.61159  -0.58749  -0.57793  -0.56270  -0.53795
  Beta  occ. eigenvalues --   -0.52953  -0.51940  -0.49217  -0.49215  -0.49148
  Beta  occ. eigenvalues --   -0.48136  -0.47429  -0.47201  -0.46796  -0.45794
  Beta  occ. eigenvalues --   -0.45707  -0.45132  -0.44769  -0.44360  -0.43727
  Beta  occ. eigenvalues --   -0.42394  -0.41978  -0.41485  -0.38796  -0.38597
  Beta  occ. eigenvalues --   -0.38443  -0.37492  -0.37236  -0.36723  -0.36350
  Beta  occ. eigenvalues --   -0.36223  -0.34819  -0.34079  -0.33141  -0.31364
  Beta  occ. eigenvalues --   -0.30123  -0.29705  -0.26361  -0.25955  -0.25214
  Beta  occ. eigenvalues --   -0.24582  -0.23918  -0.22047  -0.20756  -0.20496
  Beta  occ. eigenvalues --   -0.19970
  Beta virt. eigenvalues --   -0.04653  -0.04235  -0.01292  -0.00386   0.00133
  Beta virt. eigenvalues --    0.01250   0.01696   0.02445   0.03734   0.05625
  Beta virt. eigenvalues --    0.05973   0.05991   0.08071   0.09200   0.09249
  Beta virt. eigenvalues --    0.10261   0.10686   0.12625   0.13037   0.14005
  Beta virt. eigenvalues --    0.14166   0.15411   0.15599   0.16016   0.16025
  Beta virt. eigenvalues --    0.16696   0.17007   0.17052   0.17791   0.18057
  Beta virt. eigenvalues --    0.18700   0.19032   0.19500   0.20015   0.20440
  Beta virt. eigenvalues --    0.21384   0.22134   0.23156   0.23158   0.23421
  Beta virt. eigenvalues --    0.24277   0.25913   0.25969   0.26161   0.27579
  Beta virt. eigenvalues --    0.27630   0.27897   0.29263   0.29293   0.30376
  Beta virt. eigenvalues --    0.31291   0.31699   0.32957   0.33656   0.34539
  Beta virt. eigenvalues --    0.34800   0.36723   0.37858   0.38258   0.39590
  Beta virt. eigenvalues --    0.39852   0.41446   0.42573   0.44975   0.45615
  Beta virt. eigenvalues --    0.46944   0.47031   0.48348   0.50891   0.51044
  Beta virt. eigenvalues --    0.51784   0.52688   0.54021   0.54259   0.56311
  Beta virt. eigenvalues --    0.56470   0.56586   0.56721   0.57510   0.58147
  Beta virt. eigenvalues --    0.58674   0.58835   0.59014   0.59879   0.60662
  Beta virt. eigenvalues --    0.61518   0.61803   0.61831   0.62783   0.63050
  Beta virt. eigenvalues --    0.63231   0.63429   0.63729   0.63859   0.64004
  Beta virt. eigenvalues --    0.64068   0.64626   0.65097   0.66233   0.66304
  Beta virt. eigenvalues --    0.67424   0.67542   0.67769   0.68004   0.68867
  Beta virt. eigenvalues --    0.71045   0.72028   0.72323   0.74267   0.75704
  Beta virt. eigenvalues --    0.76419   0.76934   0.77449   0.78694   0.80451
  Beta virt. eigenvalues --    0.80606   0.81550   0.81958   0.82613   0.83825
  Beta virt. eigenvalues --    0.84089   0.84239   0.84627   0.85450   0.85918
  Beta virt. eigenvalues --    0.87197   0.87429   0.87463   0.87913   0.89789
  Beta virt. eigenvalues --    0.90980   0.91049   0.91401   0.91732   0.91743
  Beta virt. eigenvalues --    0.93065   0.93495   0.94209   0.94328   0.95705
  Beta virt. eigenvalues --    0.96524   0.96779   0.97393   0.97737   0.98356
  Beta virt. eigenvalues --    0.98558   0.98591   1.00249   1.00363   1.01722
  Beta virt. eigenvalues --    1.02244   1.03016   1.04150   1.04303   1.06210
  Beta virt. eigenvalues --    1.07346   1.08745   1.09178   1.09887   1.11196
  Beta virt. eigenvalues --    1.14107   1.15168   1.15333   1.16437   1.16714
  Beta virt. eigenvalues --    1.18172   1.18676   1.19145   1.20928   1.23948
  Beta virt. eigenvalues --    1.24175   1.24730   1.24980   1.26644   1.27410
  Beta virt. eigenvalues --    1.28767   1.29355   1.30234   1.30610   1.31333
  Beta virt. eigenvalues --    1.33704   1.33956   1.35713   1.36957   1.37151
  Beta virt. eigenvalues --    1.38534   1.39126   1.40938   1.41168   1.42416
  Beta virt. eigenvalues --    1.42948   1.45088   1.45541   1.45886   1.46766
  Beta virt. eigenvalues --    1.47590   1.48405   1.49536   1.49590   1.50200
  Beta virt. eigenvalues --    1.50471   1.50507   1.51723   1.53142   1.56381
  Beta virt. eigenvalues --    1.57815   1.58131   1.60608   1.60884   1.64708
  Beta virt. eigenvalues --    1.65585   1.66848   1.70704   1.71600   1.73732
  Beta virt. eigenvalues --    1.75053   1.77475   1.79703   1.80192   1.80581
  Beta virt. eigenvalues --    1.82593   1.83141   1.84814   1.86760   1.87239
  Beta virt. eigenvalues --    1.87313   1.87768   1.89040   1.90322   1.91450
  Beta virt. eigenvalues --    1.92496   1.93756   1.95218   1.95671   1.96730
  Beta virt. eigenvalues --    1.97290   1.98026   1.98198   1.99007   1.99265
  Beta virt. eigenvalues --    1.99935   2.00069   2.00880   2.01383   2.02189
  Beta virt. eigenvalues --    2.03464   2.05368   2.07759   2.08414   2.10320
  Beta virt. eigenvalues --    2.12906   2.13290   2.14022   2.14932   2.15936
  Beta virt. eigenvalues --    2.16407   2.16541   2.17626   2.17712   2.19236
  Beta virt. eigenvalues --    2.19620   2.20652   2.21150   2.21807   2.23319
  Beta virt. eigenvalues --    2.24752   2.24925   2.25004   2.27368   2.27376
  Beta virt. eigenvalues --    2.27829   2.27952   2.28054   2.28193   2.28395
  Beta virt. eigenvalues --    2.29648   2.32937   2.36504   2.36862   2.40409
  Beta virt. eigenvalues --    2.40788   2.41073   2.43663   2.44777   2.46971
  Beta virt. eigenvalues --    2.47587   2.48851   2.51233   2.52532   2.57042
  Beta virt. eigenvalues --    2.58404   2.58433   2.59115   2.59181   2.61026
  Beta virt. eigenvalues --    2.63617   2.63641   2.65729   2.67038   2.67881
  Beta virt. eigenvalues --    2.69160   2.70972   2.71789   2.72398   2.73877
  Beta virt. eigenvalues --    2.75829   2.76243   2.76670   2.76984   2.78745
  Beta virt. eigenvalues --    2.78835   2.83329   2.87056   2.87491   2.88298
  Beta virt. eigenvalues --    2.89743   2.93596   2.93632   2.96633   2.97836
  Beta virt. eigenvalues --    2.99533   3.02664   3.06339   3.08245   3.16416
  Beta virt. eigenvalues --    3.19503   3.20203   3.26990   3.41366   3.43930
  Beta virt. eigenvalues --    3.47452   3.49971   3.52636   3.60765   5.61089
  Beta virt. eigenvalues --    5.62950   5.62976   5.64103   5.64506   5.67210
  Beta virt. eigenvalues --    5.69000  45.79900  45.99398  46.00747  63.06517
          Condensed to atoms (all electrons):
               1          2          3          4          5          6
     1  C    5.240236   0.493047  -0.073998  -0.045682  -0.073998   0.493047
     2  C    0.493047   4.609330   0.539159  -0.002590  -0.039391  -0.014395
     3  C   -0.073998   0.539159   5.033959   0.519530  -0.041815  -0.039391
     4  C   -0.045682  -0.002590   0.519530   4.914673   0.519531  -0.002590
     5  C   -0.073998  -0.039391  -0.041815   0.519531   5.033958   0.539159
     6  C    0.493047  -0.014395  -0.039391  -0.002590   0.539159   4.609331
     7  H    0.004846  -0.037332   0.350593  -0.039371   0.004084   0.000464
     8  H    0.001234   0.002412  -0.035231   0.365585  -0.035231   0.002412
     9  H    0.004846   0.000464   0.004084  -0.039372   0.350593  -0.037332
    10  C    0.007673  -0.000006   0.000001   0.000123  -0.006418  -0.044389
    11  C    0.015087   0.002958  -0.000108   0.000041   0.003194  -0.069803
    12  C   -0.000868  -0.000000   0.000000   0.000000   0.000151   0.007602
    13  C    0.000175   0.000002  -0.000002   0.000070   0.001722  -0.005047
    14  C   -0.000000  -0.000000   0.000000  -0.000000   0.000002  -0.000029
    15  C    0.000002  -0.000000   0.000000  -0.000001   0.000081   0.000069
    16  H   -0.000037   0.000001   0.000001   0.000121   0.000001   0.000572
    17  C    0.000000   0.000000  -0.000000   0.000000  -0.000001  -0.000004
    18  H   -0.000000   0.000000   0.000000   0.000000  -0.000000   0.000003
    19  H   -0.000000   0.000000  -0.000000   0.000000   0.000002  -0.000002
    20  H   -0.000000  -0.000000   0.000000  -0.000000  -0.000000  -0.000000
    21  C    0.007673  -0.044388  -0.006418   0.000123   0.000001  -0.000006
    22  C    0.015087  -0.069803   0.003194   0.000041  -0.000108   0.002958
    23  C   -0.000868   0.007602   0.000151   0.000000   0.000000  -0.000000
    24  C    0.000175  -0.005047   0.001722   0.000070  -0.000002   0.000002
    25  C   -0.000000  -0.000029   0.000002  -0.000000   0.000000  -0.000000
    26  C    0.000002   0.000069   0.000081  -0.000001   0.000000  -0.000000
    27  H   -0.000037   0.000572   0.000001   0.000121   0.000001   0.000001
    28  C    0.000000  -0.000004  -0.000001   0.000000  -0.000000   0.000000
    29  H   -0.000000   0.000003  -0.000000   0.000000   0.000000   0.000000
    30  H   -0.000000  -0.000002   0.000002   0.000000  -0.000000   0.000000
    31  H   -0.000000  -0.000000  -0.000000  -0.000000   0.000000  -0.000000
    32  N   -0.034701   0.261258  -0.067230   0.004148   0.000701   0.006776
    33  N    0.001339   0.006464  -0.000164   0.000001   0.000000  -0.000046
    34  N   -0.034701   0.006776   0.000701   0.004148  -0.067230   0.261259
    35  N    0.001339  -0.000046   0.000000   0.000001  -0.000164   0.006464
    36  C   -0.000016   0.000000  -0.000000  -0.000000   0.000002  -0.000056
    37  H   -0.000000  -0.000000   0.000000   0.000000  -0.000000   0.000004
    38  H   -0.000000  -0.000000   0.000000   0.000000  -0.000000   0.000004
    39  H   -0.000023   0.000001   0.000000  -0.000000  -0.000000  -0.000014
    40  C   -0.000016  -0.000056   0.000002  -0.000000  -0.000000   0.000000
    41  H   -0.000000   0.000004  -0.000000   0.000000   0.000000  -0.000000
    42  H   -0.000000   0.000004  -0.000000   0.000000   0.000000  -0.000000
    43  H   -0.000023  -0.000014  -0.000000  -0.000000   0.000000   0.000001
    44  Co   0.270500  -0.068936   0.003132   0.002822   0.003132  -0.068937
               7          8          9         10         11         12
     1  C    0.004846   0.001234   0.004846   0.007673   0.015087  -0.000868
     2  C   -0.037332   0.002412   0.000464  -0.000006   0.002958  -0.000000
     3  C    0.350593  -0.035231   0.004084   0.000001  -0.000108   0.000000
     4  C   -0.039371   0.365585  -0.039372   0.000123   0.000041   0.000000
     5  C    0.004084  -0.035231   0.350593  -0.006418   0.003194   0.000151
     6  C    0.000464   0.002412  -0.037332  -0.044389  -0.069803   0.007602
     7  H    0.547582  -0.004233  -0.000114  -0.000000  -0.000000   0.000000
     8  H   -0.004233   0.542707  -0.004234  -0.000002   0.000001  -0.000000
     9  H   -0.000114  -0.004234   0.547582   0.000342  -0.000152  -0.000034
    10  C   -0.000000  -0.000002   0.000342   4.638596  -0.072002   0.516731
    11  C   -0.000000   0.000001  -0.000152  -0.072002   4.820630  -0.056261
    12  C    0.000000  -0.000000  -0.000034   0.516731  -0.056261   4.654444
    13  C   -0.000000   0.000003   0.000126   0.535433   0.004838  -0.056468
    14  C   -0.000000   0.000000   0.000000  -0.049109   0.005746   0.532725
    15  C   -0.000000   0.000000   0.000126  -0.006657  -0.000079  -0.038149
    16  H   -0.000000  -0.000011   0.006237  -0.034576  -0.000153   0.003761
    17  C    0.000000  -0.000000   0.000001  -0.039558  -0.000082  -0.007582
    18  H    0.000000  -0.000000  -0.000000   0.003863  -0.000211  -0.038299
    19  H    0.000000   0.000000  -0.000009   0.001983   0.000003   0.000936
    20  H   -0.000000  -0.000000   0.000000   0.000914   0.000003   0.002247
    21  C    0.000342  -0.000002  -0.000000  -0.000000  -0.000009   0.000000
    22  C   -0.000152   0.000001  -0.000000  -0.000009  -0.017248  -0.000003
    23  C   -0.000034  -0.000000   0.000000   0.000000  -0.000003  -0.000000
    24  C    0.000126   0.000003  -0.000000   0.000000   0.000000  -0.000000
    25  C    0.000000   0.000000  -0.000000   0.000000   0.000000   0.000000
    26  C    0.000126   0.000000  -0.000000  -0.000000  -0.000000   0.000000
    27  H    0.006236  -0.000011  -0.000000   0.000000   0.000000  -0.000000
    28  C    0.000001  -0.000000   0.000000   0.000000  -0.000000  -0.000000
    29  H   -0.000000  -0.000000   0.000000   0.000000   0.000000  -0.000000
    30  H   -0.000009   0.000000   0.000000   0.000000   0.000000   0.000000
    31  H    0.000000  -0.000000  -0.000000   0.000000   0.000000   0.000000
    32  N   -0.004518  -0.000102   0.000006   0.000000   0.000360   0.000000
    33  N    0.000002  -0.000000  -0.000000  -0.000000   0.000025   0.000000
    34  N    0.000006  -0.000102  -0.004518   0.263393   0.350401  -0.040133
    35  N   -0.000000  -0.000000   0.000002  -0.044129   0.313347   0.274406
    36  C   -0.000000   0.000000  -0.000000   0.005836  -0.042972  -0.047805
    37  H    0.000000  -0.000000  -0.000000  -0.000143   0.000681  -0.001374
    38  H    0.000000  -0.000000  -0.000000  -0.000143   0.000676  -0.001370
    39  H    0.000000   0.000000   0.000000   0.000017  -0.000293   0.002645
    40  C   -0.000000   0.000000  -0.000000   0.000000   0.000019   0.000000
    41  H   -0.000000  -0.000000   0.000000  -0.000000  -0.000000  -0.000000
    42  H   -0.000000  -0.000000   0.000000  -0.000000  -0.000000  -0.000000
    43  H    0.000000   0.000000   0.000000   0.000000  -0.000001  -0.000000
    44  Co  -0.000477   0.000164  -0.000477   0.007698   0.367851   0.004942
              13         14         15         16         17         18
     1  C    0.000175  -0.000000   0.000002  -0.000037   0.000000  -0.000000
     2  C    0.000002  -0.000000  -0.000000   0.000001   0.000000   0.000000
     3  C   -0.000002   0.000000   0.000000   0.000001  -0.000000   0.000000
     4  C    0.000070  -0.000000  -0.000001   0.000121   0.000000   0.000000
     5  C    0.001722   0.000002   0.000081   0.000001  -0.000001  -0.000000
     6  C   -0.005047  -0.000029   0.000069   0.000572  -0.000004   0.000003
     7  H   -0.000000  -0.000000  -0.000000  -0.000000   0.000000   0.000000
     8  H    0.000003   0.000000   0.000000  -0.000011  -0.000000  -0.000000
     9  H    0.000126   0.000000   0.000126   0.006237   0.000001  -0.000000
    10  C    0.535433  -0.049109  -0.006657  -0.034576  -0.039558   0.003863
    11  C    0.004838   0.005746  -0.000079  -0.000153  -0.000082  -0.000211
    12  C   -0.056468   0.532725  -0.038149   0.003761  -0.007582  -0.038299
    13  C    5.025849  -0.044337   0.511143   0.355729  -0.035531   0.000269
    14  C   -0.044337   5.032975  -0.038797   0.000458   0.516730   0.362412
    15  C    0.511143  -0.038797   4.899572  -0.036355   0.556297   0.003933
    16  H    0.355729   0.000458  -0.036355   0.519683   0.003728   0.000014
    17  C   -0.035531   0.516730   0.556297   0.003728   4.890365  -0.035900
    18  H    0.000269   0.362412   0.003933   0.000014  -0.035900   0.536858
    19  H   -0.036111   0.004029   0.368775  -0.004127  -0.036172  -0.000149
    20  H    0.003971  -0.037013  -0.035974  -0.000148   0.368274  -0.004221
    21  C    0.000000   0.000000  -0.000000   0.000000   0.000000   0.000000
    22  C    0.000000   0.000000  -0.000000   0.000000  -0.000000   0.000000
    23  C   -0.000000   0.000000   0.000000  -0.000000  -0.000000  -0.000000
    24  C    0.000000   0.000000  -0.000000   0.000000   0.000000   0.000000
    25  C    0.000000  -0.000000   0.000000  -0.000000  -0.000000   0.000000
    26  C   -0.000000   0.000000  -0.000000   0.000000   0.000000   0.000000
    27  H    0.000000  -0.000000   0.000000   0.000000   0.000000  -0.000000
    28  C    0.000000  -0.000000   0.000000   0.000000   0.000000   0.000000
    29  H    0.000000   0.000000   0.000000  -0.000000   0.000000  -0.000000
    30  H   -0.000000  -0.000000   0.000000  -0.000000   0.000000   0.000000
    31  H   -0.000000   0.000000   0.000000  -0.000000   0.000000   0.000000
    32  N   -0.000000   0.000000   0.000000   0.000000   0.000000  -0.000000
    33  N    0.000000  -0.000000   0.000000   0.000000   0.000000  -0.000000
    34  N   -0.077142   0.009050   0.005133  -0.004788  -0.000201  -0.000089
    35  N    0.009420  -0.083542  -0.000130  -0.000100   0.005362  -0.007107
    36  C   -0.000119  -0.002898   0.000009   0.000003  -0.000117   0.004103
    37  H   -0.000009   0.002754  -0.000002  -0.000000  -0.000006   0.000539
    38  H   -0.000009   0.002752  -0.000002  -0.000000  -0.000006   0.000538
    39  H    0.000006   0.000030  -0.000000  -0.000000   0.000001  -0.000034
    40  C    0.000000   0.000000  -0.000000   0.000000   0.000000  -0.000000
    41  H    0.000000   0.000000  -0.000000   0.000000  -0.000000  -0.000000
    42  H    0.000000   0.000000  -0.000000   0.000000  -0.000000  -0.000000
    43  H    0.000000   0.000000  -0.000000   0.000000  -0.000000   0.000000
    44  Co  -0.000509  -0.000446  -0.000006   0.000057   0.000002   0.000014
              19         20         21         22         23         24
     1  C   -0.000000  -0.000000   0.007673   0.015087  -0.000868   0.000175
     2  C    0.000000  -0.000000  -0.044388  -0.069803   0.007602  -0.005047
     3  C   -0.000000   0.000000  -0.006418   0.003194   0.000151   0.001722
     4  C    0.000000  -0.000000   0.000123   0.000041   0.000000   0.000070
     5  C    0.000002  -0.000000   0.000001  -0.000108   0.000000  -0.000002
     6  C   -0.000002  -0.000000  -0.000006   0.002958  -0.000000   0.000002
     7  H    0.000000  -0.000000   0.000342  -0.000152  -0.000034   0.000126
     8  H    0.000000  -0.000000  -0.000002   0.000001  -0.000000   0.000003
     9  H   -0.000009   0.000000  -0.000000  -0.000000   0.000000  -0.000000
    10  C    0.001983   0.000914  -0.000000  -0.000009   0.000000   0.000000
    11  C    0.000003   0.000003  -0.000009  -0.017248  -0.000003   0.000000
    12  C    0.000936   0.002247   0.000000  -0.000003  -0.000000  -0.000000
    13  C   -0.036111   0.003971   0.000000   0.000000  -0.000000   0.000000
    14  C    0.004029  -0.037013   0.000000   0.000000   0.000000   0.000000
    15  C    0.368775  -0.035974  -0.000000  -0.000000   0.000000  -0.000000
    16  H   -0.004127  -0.000148   0.000000   0.000000  -0.000000   0.000000
    17  C   -0.036172   0.368274   0.000000  -0.000000  -0.000000   0.000000
    18  H   -0.000149  -0.004221   0.000000   0.000000  -0.000000   0.000000
    19  H    0.535353  -0.004565   0.000000   0.000000   0.000000  -0.000000
    20  H   -0.004565   0.537629   0.000000   0.000000   0.000000  -0.000000
    21  C    0.000000   0.000000   4.638591  -0.072002   0.516732   0.535433
    22  C    0.000000   0.000000  -0.072002   4.820627  -0.056262   0.004838
    23  C    0.000000   0.000000   0.516732  -0.056262   4.654448  -0.056469
    24  C   -0.000000  -0.000000   0.535433   0.004838  -0.056469   5.025852
    25  C   -0.000000   0.000000  -0.049109   0.005746   0.532724  -0.044336
    26  C    0.000000   0.000000  -0.006658  -0.000079  -0.038149   0.511143
    27  H   -0.000000  -0.000000  -0.034576  -0.000153   0.003761   0.355729
    28  C    0.000000   0.000000  -0.039558  -0.000082  -0.007582  -0.035531
    29  H    0.000000   0.000000   0.003863  -0.000211  -0.038299   0.000269
    30  H    0.000000   0.000000   0.001983   0.000003   0.000936  -0.036111
    31  H    0.000000   0.000000   0.000914   0.000003   0.002247   0.003971
    32  N   -0.000000   0.000000   0.263392   0.350402  -0.040133  -0.077143
    33  N   -0.000000  -0.000000  -0.044128   0.313347   0.274406   0.009420
    34  N   -0.000089   0.000004   0.000000   0.000360   0.000000  -0.000000
    35  N    0.000004  -0.000097  -0.000000   0.000025   0.000000   0.000000
    36  C   -0.000000  -0.000002   0.000000   0.000019   0.000000   0.000000
    37  H   -0.000000  -0.000000  -0.000000  -0.000000  -0.000000   0.000000
    38  H   -0.000000  -0.000000  -0.000000  -0.000000  -0.000000   0.000000
    39  H   -0.000000  -0.000000   0.000000  -0.000001  -0.000000   0.000000
    40  C    0.000000  -0.000000   0.005836  -0.042972  -0.047805  -0.000119
    41  H   -0.000000   0.000000  -0.000143   0.000676  -0.001370  -0.000009
    42  H   -0.000000   0.000000  -0.000143   0.000681  -0.001374  -0.000009
    43  H    0.000000   0.000000   0.000017  -0.000293   0.002645   0.000006
    44  Co   0.000017  -0.000005   0.007698   0.367851   0.004942  -0.000509
              25         26         27         28         29         30
     1  C   -0.000000   0.000002  -0.000037   0.000000  -0.000000  -0.000000
     2  C   -0.000029   0.000069   0.000572  -0.000004   0.000003  -0.000002
     3  C    0.000002   0.000081   0.000001  -0.000001  -0.000000   0.000002
     4  C   -0.000000  -0.000001   0.000121   0.000000   0.000000   0.000000
     5  C    0.000000   0.000000   0.000001  -0.000000   0.000000  -0.000000
     6  C   -0.000000  -0.000000   0.000001   0.000000   0.000000   0.000000
     7  H    0.000000   0.000126   0.006236   0.000001  -0.000000  -0.000009
     8  H    0.000000   0.000000  -0.000011  -0.000000  -0.000000   0.000000
     9  H   -0.000000  -0.000000  -0.000000   0.000000   0.000000   0.000000
    10  C    0.000000  -0.000000   0.000000   0.000000   0.000000   0.000000
    11  C    0.000000  -0.000000   0.000000  -0.000000   0.000000   0.000000
    12  C    0.000000   0.000000  -0.000000  -0.000000  -0.000000   0.000000
    13  C    0.000000  -0.000000   0.000000   0.000000   0.000000  -0.000000
    14  C   -0.000000   0.000000  -0.000000  -0.000000   0.000000  -0.000000
    15  C    0.000000  -0.000000   0.000000   0.000000   0.000000   0.000000
    16  H   -0.000000   0.000000   0.000000   0.000000  -0.000000  -0.000000
    17  C   -0.000000   0.000000   0.000000   0.000000   0.000000   0.000000
    18  H    0.000000   0.000000  -0.000000   0.000000  -0.000000   0.000000
    19  H   -0.000000   0.000000  -0.000000   0.000000   0.000000   0.000000
    20  H    0.000000   0.000000  -0.000000   0.000000   0.000000   0.000000
    21  C   -0.049109  -0.006658  -0.034576  -0.039558   0.003863   0.001983
    22  C    0.005746  -0.000079  -0.000153  -0.000082  -0.000211   0.000003
    23  C    0.532724  -0.038149   0.003761  -0.007582  -0.038299   0.000936
    24  C   -0.044336   0.511143   0.355729  -0.035531   0.000269  -0.036111
    25  C    5.032971  -0.038797   0.000458   0.516731   0.362412   0.004029
    26  C   -0.038797   4.899572  -0.036355   0.556297   0.003933   0.368776
    27  H    0.000458  -0.036355   0.519683   0.003728   0.000014  -0.004127
    28  C    0.516731   0.556297   0.003728   4.890364  -0.035901  -0.036172
    29  H    0.362412   0.003933   0.000014  -0.035901   0.536857  -0.000149
    30  H    0.004029   0.368776  -0.004127  -0.036172  -0.000149   0.535352
    31  H   -0.037013  -0.035974  -0.000148   0.368274  -0.004221  -0.004565
    32  N    0.009050   0.005133  -0.004788  -0.000201  -0.000089  -0.000089
    33  N   -0.083541  -0.000130  -0.000100   0.005362  -0.007107   0.000004
    34  N    0.000000   0.000000   0.000000   0.000000  -0.000000  -0.000000
    35  N   -0.000000   0.000000   0.000000   0.000000  -0.000000  -0.000000
    36  C    0.000000  -0.000000   0.000000   0.000000  -0.000000   0.000000
    37  H    0.000000  -0.000000   0.000000  -0.000000  -0.000000  -0.000000
    38  H    0.000000  -0.000000   0.000000  -0.000000  -0.000000  -0.000000
    39  H    0.000000  -0.000000   0.000000  -0.000000   0.000000   0.000000
    40  C   -0.002898   0.000009   0.000003  -0.000117   0.004103  -0.000000
    41  H    0.002752  -0.000002  -0.000000  -0.000006   0.000538  -0.000000
    42  H    0.002754  -0.000002  -0.000000  -0.000006   0.000540  -0.000000
    43  H    0.000030  -0.000000  -0.000000   0.000001  -0.000034  -0.000000
    44  Co  -0.000446  -0.000006   0.000057   0.000002   0.000014   0.000017
              31         32         33         34         35         36
     1  C   -0.000000  -0.034701   0.001339  -0.034701   0.001339  -0.000016
     2  C   -0.000000   0.261258   0.006464   0.006776  -0.000046   0.000000
     3  C   -0.000000  -0.067230  -0.000164   0.000701   0.000000  -0.000000
     4  C   -0.000000   0.004148   0.000001   0.004148   0.000001  -0.000000
     5  C    0.000000   0.000701   0.000000  -0.067230  -0.000164   0.000002
     6  C   -0.000000   0.006776  -0.000046   0.261259   0.006464  -0.000056
     7  H    0.000000  -0.004518   0.000002   0.000006  -0.000000  -0.000000
     8  H   -0.000000  -0.000102  -0.000000  -0.000102  -0.000000   0.000000
     9  H   -0.000000   0.000006  -0.000000  -0.004518   0.000002  -0.000000
    10  C    0.000000   0.000000  -0.000000   0.263393  -0.044129   0.005836
    11  C    0.000000   0.000360   0.000025   0.350401   0.313347  -0.042972
    12  C    0.000000   0.000000   0.000000  -0.040133   0.274406  -0.047805
    13  C   -0.000000  -0.000000   0.000000  -0.077142   0.009420  -0.000119
    14  C    0.000000   0.000000  -0.000000   0.009050  -0.083542  -0.002898
    15  C    0.000000   0.000000   0.000000   0.005133  -0.000130   0.000009
    16  H   -0.000000   0.000000   0.000000  -0.004788  -0.000100   0.000003
    17  C    0.000000   0.000000   0.000000  -0.000201   0.005362  -0.000117
    18  H    0.000000  -0.000000  -0.000000  -0.000089  -0.007107   0.004103
    19  H    0.000000  -0.000000  -0.000000  -0.000089   0.000004  -0.000000
    20  H    0.000000   0.000000  -0.000000   0.000004  -0.000097  -0.000002
    21  C    0.000914   0.263392  -0.044128   0.000000  -0.000000   0.000000
    22  C    0.000003   0.350402   0.313347   0.000360   0.000025   0.000019
    23  C    0.002247  -0.040133   0.274406   0.000000   0.000000   0.000000
    24  C    0.003971  -0.077143   0.009420  -0.000000   0.000000   0.000000
    25  C   -0.037013   0.009050  -0.083541   0.000000  -0.000000   0.000000
    26  C   -0.035974   0.005133  -0.000130   0.000000   0.000000  -0.000000
    27  H   -0.000148  -0.004788  -0.000100   0.000000   0.000000   0.000000
    28  C    0.368274  -0.000201   0.005362   0.000000   0.000000   0.000000
    29  H   -0.004221  -0.000089  -0.007107  -0.000000  -0.000000  -0.000000
    30  H   -0.004565  -0.000089   0.000004  -0.000000  -0.000000   0.000000
    31  H    0.537630   0.000004  -0.000097   0.000000  -0.000000  -0.000000
    32  N    0.000004   7.186784  -0.060542  -0.000175   0.000001  -0.000000
    33  N   -0.000097  -0.060542   7.058472   0.000001  -0.000000  -0.000000
    34  N    0.000000  -0.000175   0.000001   7.186782  -0.060542   0.004874
    35  N   -0.000000   0.000001  -0.000000  -0.060542   7.058476   0.298356
    36  C   -0.000000  -0.000000  -0.000000   0.004874   0.298356   5.049159
    37  H    0.000000   0.000000  -0.000000  -0.000067  -0.041875   0.377833
    38  H    0.000000   0.000000  -0.000000  -0.000067  -0.041880   0.377838
    39  H    0.000000  -0.000000   0.000001   0.000144  -0.032671   0.377287
    40  C   -0.000002   0.004874   0.298356  -0.000000  -0.000000   0.000000
    41  H   -0.000000  -0.000067  -0.041880   0.000000  -0.000000  -0.000000
    42  H   -0.000000  -0.000067  -0.041874   0.000000  -0.000000  -0.000000
    43  H   -0.000000   0.000144  -0.032671  -0.000000   0.000001  -0.000001
    44  Co  -0.000005  -0.082306  -0.053047  -0.082306  -0.053047  -0.003028
              37         38         39         40         41         42
     1  C   -0.000000  -0.000000  -0.000023  -0.000016  -0.000000  -0.000000
     2  C   -0.000000  -0.000000   0.000001  -0.000056   0.000004   0.000004
     3  C    0.000000   0.000000   0.000000   0.000002  -0.000000  -0.000000
     4  C    0.000000   0.000000  -0.000000  -0.000000   0.000000   0.000000
     5  C   -0.000000  -0.000000  -0.000000  -0.000000   0.000000   0.000000
     6  C    0.000004   0.000004  -0.000014   0.000000  -0.000000  -0.000000
     7  H    0.000000   0.000000   0.000000  -0.000000  -0.000000  -0.000000
     8  H   -0.000000  -0.000000   0.000000   0.000000  -0.000000  -0.000000
     9  H   -0.000000  -0.000000   0.000000  -0.000000   0.000000   0.000000
    10  C   -0.000143  -0.000143   0.000017   0.000000  -0.000000  -0.000000
    11  C    0.000681   0.000676  -0.000293   0.000019  -0.000000  -0.000000
    12  C   -0.001374  -0.001370   0.002645   0.000000  -0.000000  -0.000000
    13  C   -0.000009  -0.000009   0.000006   0.000000   0.000000   0.000000
    14  C    0.002754   0.002752   0.000030   0.000000   0.000000   0.000000
    15  C   -0.000002  -0.000002  -0.000000  -0.000000  -0.000000  -0.000000
    16  H   -0.000000  -0.000000  -0.000000   0.000000   0.000000   0.000000
    17  C   -0.000006  -0.000006   0.000001   0.000000  -0.000000  -0.000000
    18  H    0.000539   0.000538  -0.000034  -0.000000  -0.000000  -0.000000
    19  H   -0.000000  -0.000000  -0.000000   0.000000  -0.000000  -0.000000
    20  H   -0.000000  -0.000000  -0.000000  -0.000000   0.000000   0.000000
    21  C   -0.000000  -0.000000   0.000000   0.005836  -0.000143  -0.000143
    22  C   -0.000000  -0.000000  -0.000001  -0.042972   0.000676   0.000681
    23  C   -0.000000  -0.000000  -0.000000  -0.047805  -0.001370  -0.001374
    24  C    0.000000   0.000000   0.000000  -0.000119  -0.000009  -0.000009
    25  C    0.000000   0.000000   0.000000  -0.002898   0.002752   0.002754
    26  C   -0.000000  -0.000000  -0.000000   0.000009  -0.000002  -0.000002
    27  H    0.000000   0.000000   0.000000   0.000003  -0.000000  -0.000000
    28  C   -0.000000  -0.000000  -0.000000  -0.000117  -0.000006  -0.000006
    29  H   -0.000000  -0.000000   0.000000   0.004103   0.000538   0.000540
    30  H   -0.000000  -0.000000   0.000000  -0.000000  -0.000000  -0.000000
    31  H    0.000000   0.000000   0.000000  -0.000002  -0.000000  -0.000000
    32  N    0.000000   0.000000  -0.000000   0.004874  -0.000067  -0.000067
    33  N   -0.000000  -0.000000   0.000001   0.298356  -0.041880  -0.041874
    34  N   -0.000067  -0.000067   0.000144  -0.000000   0.000000   0.000000
    35  N   -0.041875  -0.041880  -0.032671  -0.000000  -0.000000  -0.000000
    36  C    0.377833   0.377838   0.377287   0.000000  -0.000000  -0.000000
    37  H    0.524224  -0.040552  -0.025268  -0.000000  -0.000000   0.000000
    38  H   -0.040552   0.524227  -0.025277  -0.000000   0.000000  -0.000000
    39  H   -0.025268  -0.025277   0.482171  -0.000001   0.000000   0.000000
    40  C   -0.000000  -0.000000  -0.000001   5.049159   0.377838   0.377833
    41  H   -0.000000   0.000000   0.000000   0.377838   0.524227  -0.040552
    42  H    0.000000  -0.000000   0.000000   0.377833  -0.040552   0.524224
    43  H    0.000000   0.000000  -0.000024   0.377287  -0.025277  -0.025268
    44  Co   0.001000   0.001004   0.007231  -0.003028   0.001005   0.001000
              43         44
     1  C   -0.000023   0.270500
     2  C   -0.000014  -0.068936
     3  C   -0.000000   0.003132
     4  C   -0.000000   0.002822
     5  C    0.000000   0.003132
     6  C    0.000001  -0.068937
     7  H    0.000000  -0.000477
     8  H    0.000000   0.000164
     9  H    0.000000  -0.000477
    10  C    0.000000   0.007698
    11  C   -0.000001   0.367851
    12  C   -0.000000   0.004942
    13  C    0.000000  -0.000509
    14  C    0.000000  -0.000446
    15  C   -0.000000  -0.000006
    16  H    0.000000   0.000057
    17  C   -0.000000   0.000002
    18  H    0.000000   0.000014
    19  H    0.000000   0.000017
    20  H    0.000000  -0.000005
    21  C    0.000017   0.007698
    22  C   -0.000293   0.367851
    23  C    0.002645   0.004942
    24  C    0.000006  -0.000509
    25  C    0.000030  -0.000446
    26  C   -0.000000  -0.000006
    27  H   -0.000000   0.000057
    28  C    0.000001   0.000002
    29  H   -0.000034   0.000014
    30  H   -0.000000   0.000017
    31  H   -0.000000  -0.000005
    32  N    0.000144  -0.082306
    33  N   -0.032671  -0.053047
    34  N   -0.000000  -0.082306
    35  N    0.000001  -0.053047
    36  C   -0.000001  -0.003028
    37  H    0.000000   0.001000
    38  H    0.000000   0.001004
    39  H   -0.000024   0.007231
    40  C    0.377287  -0.003028
    41  H   -0.025277   0.001005
    42  H   -0.025268   0.001000
    43  H    0.482171   0.007231
    44  Co   0.007231  16.282077
          Atomic-Atomic Spin Densities.
               1          2          3          4          5          6
     1  C   -0.215997  -0.011954   0.003511   0.003015   0.003511  -0.011954
     2  C   -0.011954   0.111241   0.006432  -0.004147   0.000953   0.003357
     3  C    0.003511   0.006432  -0.082778  -0.006340   0.000623   0.000953
     4  C    0.003015  -0.004147  -0.006340   0.140720  -0.006340  -0.004147
     5  C    0.003511   0.000953   0.000623  -0.006340  -0.082778   0.006432
     6  C   -0.011954   0.003357   0.000953  -0.004147   0.006432   0.111242
     7  H   -0.000267  -0.000211   0.002309   0.000439   0.000017  -0.000071
     8  H   -0.000068   0.000009   0.000067   0.000004   0.000067   0.000009
     9  H   -0.000267  -0.000071   0.000017   0.000439   0.002309  -0.000211
    10  C   -0.000183  -0.000020   0.000001   0.000015   0.000332  -0.000192
    11  C    0.004897  -0.000954  -0.000001   0.000032  -0.000195  -0.006379
    12  C    0.000038   0.000000  -0.000000  -0.000000  -0.000009   0.000034
    13  C    0.000019  -0.000000  -0.000000   0.000006  -0.000212  -0.000355
    14  C    0.000001   0.000000  -0.000000   0.000000  -0.000001  -0.000018
    15  C   -0.000000   0.000000   0.000000  -0.000000   0.000002   0.000009
    16  H   -0.000001  -0.000000  -0.000000   0.000001   0.000043   0.000044
    17  C   -0.000000  -0.000000   0.000000  -0.000000   0.000000   0.000001
    18  H    0.000000   0.000000  -0.000000   0.000000   0.000000   0.000000
    19  H    0.000000   0.000000  -0.000000  -0.000000  -0.000000   0.000000
    20  H    0.000000   0.000000  -0.000000  -0.000000  -0.000000  -0.000000
    21  C   -0.000183  -0.000192   0.000332   0.000015   0.000001  -0.000020
    22  C    0.004897  -0.006379  -0.000195   0.000032  -0.000001  -0.000954
    23  C    0.000038   0.000034  -0.000009  -0.000000  -0.000000   0.000000
    24  C    0.000019  -0.000355  -0.000212   0.000006  -0.000000  -0.000000
    25  C    0.000001  -0.000018  -0.000001   0.000000  -0.000000   0.000000
    26  C   -0.000000   0.000009   0.000002  -0.000000   0.000000   0.000000
    27  H   -0.000001   0.000044   0.000043   0.000001  -0.000000  -0.000000
    28  C   -0.000000   0.000001   0.000000  -0.000000   0.000000  -0.000000
    29  H    0.000000   0.000000   0.000000   0.000000  -0.000000   0.000000
    30  H    0.000000   0.000000  -0.000000  -0.000000  -0.000000   0.000000
    31  H    0.000000  -0.000000  -0.000000  -0.000000  -0.000000   0.000000
    32  N    0.000637   0.011788   0.002816   0.000004   0.000023  -0.000058
    33  N   -0.000567   0.000391  -0.000009  -0.000000  -0.000000   0.000004
    34  N    0.000637  -0.000058   0.000023   0.000004   0.002816   0.011788
    35  N   -0.000567   0.000004  -0.000000  -0.000000  -0.000009   0.000391
    36  C   -0.000012   0.000000  -0.000000  -0.000000  -0.000000  -0.000005
    37  H    0.000001  -0.000000  -0.000000   0.000000  -0.000000  -0.000001
    38  H    0.000001  -0.000000  -0.000000   0.000000  -0.000000  -0.000001
    39  H    0.000011   0.000000   0.000000   0.000000   0.000000   0.000000
    40  C   -0.000012  -0.000005  -0.000000  -0.000000  -0.000000   0.000000
    41  H    0.000001  -0.000001  -0.000000   0.000000  -0.000000  -0.000000
    42  H    0.000001  -0.000001  -0.000000   0.000000  -0.000000  -0.000000
    43  H    0.000011   0.000000   0.000000   0.000000   0.000000   0.000000
    44  Co   0.030813  -0.011835  -0.001652   0.001612  -0.001652  -0.011835
               7          8          9         10         11         12
     1  C   -0.000267  -0.000068  -0.000267  -0.000183   0.004897   0.000038
     2  C   -0.000211   0.000009  -0.000071  -0.000020  -0.000954   0.000000
     3  C    0.002309   0.000067   0.000017   0.000001  -0.000001  -0.000000
     4  C    0.000439   0.000004   0.000439   0.000015   0.000032  -0.000000
     5  C    0.000017   0.000067   0.002309   0.000332  -0.000195  -0.000009
     6  C   -0.000071   0.000009  -0.000211  -0.000192  -0.006379   0.000034
     7  H   -0.001635  -0.000021  -0.000010  -0.000000   0.000000   0.000000
     8  H   -0.000021  -0.006590  -0.000021  -0.000000   0.000000   0.000000
     9  H   -0.000010  -0.000021  -0.001635  -0.000063   0.000013   0.000001
    10  C   -0.000000  -0.000000  -0.000063  -0.005528   0.001406  -0.001896
    11  C    0.000000   0.000000   0.000013   0.001406   0.198419  -0.001423
    12  C    0.000000   0.000000   0.000001  -0.001896  -0.001423  -0.026833
    13  C    0.000000   0.000000   0.000067   0.004004   0.000290   0.000594
    14  C    0.000000   0.000000   0.000000   0.000777   0.000517   0.000336
    15  C    0.000000   0.000000   0.000004  -0.000726  -0.000026   0.000184
    16  H   -0.000000  -0.000000  -0.000103  -0.000150  -0.000001  -0.000006
    17  C   -0.000000  -0.000000  -0.000000   0.000128  -0.000014  -0.000253
    18  H   -0.000000  -0.000000  -0.000000  -0.000009  -0.000002  -0.000060
    19  H   -0.000000  -0.000000  -0.000000   0.000003  -0.000000  -0.000007
    20  H    0.000000   0.000000   0.000000  -0.000006  -0.000000   0.000013
    21  C   -0.000063  -0.000000  -0.000000  -0.000000   0.000001  -0.000000
    22  C    0.000013   0.000000   0.000000   0.000001   0.001980   0.000000
    23  C    0.000001   0.000000   0.000000  -0.000000   0.000000   0.000000
    24  C    0.000067   0.000000   0.000000   0.000000   0.000000   0.000000
    25  C    0.000000   0.000000   0.000000   0.000000   0.000000   0.000000
    26  C    0.000004   0.000000   0.000000  -0.000000  -0.000000  -0.000000
    27  H   -0.000103  -0.000000  -0.000000  -0.000000   0.000000  -0.000000
    28  C   -0.000000  -0.000000  -0.000000  -0.000000  -0.000000   0.000000
    29  H   -0.000000  -0.000000  -0.000000   0.000000   0.000000  -0.000000
    30  H   -0.000000  -0.000000  -0.000000  -0.000000  -0.000000   0.000000
    31  H    0.000000   0.000000   0.000000   0.000000  -0.000000  -0.000000
    32  N   -0.000281  -0.000000  -0.000001  -0.000000  -0.000043  -0.000000
    33  N    0.000001   0.000000   0.000000   0.000000  -0.000005   0.000000
    34  N   -0.000001  -0.000000  -0.000281  -0.000580  -0.030371   0.001393
    35  N    0.000000   0.000000   0.000001  -0.000661  -0.043034   0.006209
    36  C    0.000000   0.000000   0.000000  -0.000034   0.000587   0.000331
    37  H   -0.000000  -0.000000  -0.000000   0.000003   0.000437  -0.000122
    38  H   -0.000000  -0.000000  -0.000000   0.000003   0.000438  -0.000122
    39  H   -0.000000  -0.000000  -0.000000   0.000000  -0.000532  -0.000047
    40  C    0.000000   0.000000   0.000000   0.000000  -0.000001  -0.000000
    41  H   -0.000000  -0.000000  -0.000000   0.000000   0.000000  -0.000000
    42  H   -0.000000  -0.000000  -0.000000   0.000000   0.000000  -0.000000
    43  H   -0.000000  -0.000000  -0.000000  -0.000000   0.000001   0.000000
    44  Co   0.000247   0.000020   0.000247   0.001171   0.060023   0.000188
              13         14         15         16         17         18
     1  C    0.000019   0.000001  -0.000000  -0.000001  -0.000000   0.000000
     2  C   -0.000000   0.000000   0.000000  -0.000000  -0.000000   0.000000
     3  C   -0.000000  -0.000000   0.000000  -0.000000   0.000000  -0.000000
     4  C    0.000006   0.000000  -0.000000   0.000001  -0.000000   0.000000
     5  C   -0.000212  -0.000001   0.000002   0.000043   0.000000   0.000000
     6  C   -0.000355  -0.000018   0.000009   0.000044   0.000001   0.000000
     7  H    0.000000   0.000000   0.000000  -0.000000  -0.000000  -0.000000
     8  H    0.000000   0.000000   0.000000  -0.000000  -0.000000  -0.000000
     9  H    0.000067   0.000000   0.000004  -0.000103  -0.000000  -0.000000
    10  C    0.004004   0.000777  -0.000726  -0.000150   0.000128  -0.000009
    11  C    0.000290   0.000517  -0.000026  -0.000001  -0.000014  -0.000002
    12  C    0.000594   0.000336   0.000184  -0.000006  -0.000253  -0.000060
    13  C    0.022254   0.001006  -0.009462   0.000190  -0.001265  -0.000005
    14  C    0.001006   0.050064  -0.002094  -0.000003  -0.007225   0.000057
[...]
    40 C(13)  Bbb    -0.0033    -0.438    -0.156    -0.146 -0.6496  0.7603  0.0001
              Bcc     0.0087     1.163     0.415     0.388  0.7603  0.6496  0.0001
 
              Baa    -0.0038    -2.049    -0.731    -0.683 -0.0376  0.3496  0.9361
    41 H(1)   Bbb    -0.0024    -1.300    -0.464    -0.434 -0.6719  0.6846 -0.2827
              Bcc     0.0063     3.349     1.195     1.117  0.7397  0.6396 -0.2092
 
              Baa    -0.0038    -2.048    -0.731    -0.683  0.0376 -0.3496  0.9362
    42 H(1)   Bbb    -0.0024    -1.300    -0.464    -0.433 -0.6718  0.6847  0.2826
              Bcc     0.0063     3.348     1.195     1.117  0.7397  0.6396  0.2091
 
              Baa    -0.0071    -3.791    -1.353    -1.264  0.0000 -0.0002  1.0000
    43 H(1)   Bbb    -0.0058    -3.111    -1.110    -1.038  0.7755 -0.6313 -0.0001
              Bcc     0.0129     6.901     2.463     2.302  0.6313  0.7755  0.0001
 
              Baa    -1.4120  -178.312   -63.626   -59.478  1.0000  0.0000  0.0000
    44 Co(59) Bbb     0.2449    30.926    11.035    10.316 -0.0000  1.0000  0.0000
              Bcc     1.1671   147.386    52.591    49.163 -0.0000 -0.0000  1.0000
 

 ---------------------------------------------------------------------------------

   1 Symmetry operations used in ECPInt.
 ECPInt:  NShTT=   11781 NPrTT=   71406 LenC2=    9550 LenP2D=   32132.
 LDataN:  DoStor=T MaxTD1= 7 Len=  274
 Calling FoFJK, ICntrl=      2127 FMM=F ISym2X=0 I1Cent= 0 IOpClX= 1 NMat=1 NMatS=1 NMatT=0.
 -------------------------------------------------------------------
 Center     Atomic                   Forces (Hartrees/Bohr)
 Number     Number              X              Y              Z
 -------------------------------------------------------------------
      1        6          -0.000000063   -0.005013806   -0.000011242
      2        6           0.021367020    0.002633247    0.000004269
      3        6           0.003577685    0.004215785    0.000001711
      4        6          -0.000000902   -0.000167530   -0.000001479
      5        6          -0.003577362    0.004215869    0.000001503
      6        6          -0.021368220    0.002634453    0.000004506
      7        1          -0.000175829    0.000595985   -0.000000654
      8        1           0.000000139   -0.000998703   -0.000000004
      9        1           0.000176291    0.000596174   -0.000000796
     10        6          -0.004332235   -0.002361842    0.000000419
     11        6           0.004822527    0.001739692   -0.000010656
     12        6           0.000239857   -0.000648806    0.000000514
     13        6           0.003683055    0.001971509   -0.000000825
     14        6          -0.000047028    0.002182297   -0.000000136
     15        6          -0.003581413    0.002367138    0.000000504
     16        1           0.000247993   -0.000502420   -0.000000033
     17        6          -0.000920675   -0.004014746   -0.000000184
     18        1           0.000019308    0.000436257    0.000000069
     19        1          -0.000399138   -0.000329311    0.000000023
     20        1           0.000437186    0.000088583    0.000000057
     21        6           0.004335199   -0.002362729   -0.000000588
     22        6          -0.004820822    0.001740044   -0.000008803
     23        6          -0.000243618   -0.000651205    0.000000262
     24        6          -0.003686297    0.001973308   -0.000000450
     25        6           0.000052204    0.002183320    0.000000124
     26        6           0.003585678    0.002366045    0.000000178
     27        1          -0.000247990   -0.000503021   -0.000000030
     28        6           0.000916837   -0.004014182   -0.000000306
     29        1          -0.000019906    0.000435282   -0.000000059
     30        1           0.000398016   -0.000328207    0.000000053
     31        1          -0.000436008    0.000088748    0.000000051
     32        7          -0.013325837   -0.013927869    0.000003548
     33        7           0.003619296    0.004290673    0.000002990
     34        7           0.013326009   -0.013929560    0.000001353
     35        7          -0.003620770    0.004289302    0.000004732
     36        6          -0.000137233   -0.002481977    0.000000631
     37        1          -0.000012969    0.000637996    0.000379961
     38        1          -0.000013768    0.000638930   -0.000381673
     39        1           0.000232921    0.000479516    0.000000417
     40        6           0.000136435   -0.002482708    0.000000993
     41        1           0.000013886    0.000639076   -0.000381889
     42        1           0.000012938    0.000638183    0.000379976
     43        1          -0.000232165    0.000479177    0.000000589
     44       27          -0.000000229    0.010162032    0.000010374
 -------------------------------------------------------------------
 Cartesian Forces:  Max     0.021368220 RMS     0.004044412

 GradGradGradGradGradGradGradGradGradGradGradGradGradGradGradGradGradGrad
 Berny optimization.
 Search for a local minimum.
 Step number   1 out of a maximum of    2
 All quantities printed in internal units (Hartrees-Bohrs-Radians)
 Second derivative matrix not updated -- first step.
 ITU=  0
     Eigenvalues ---    0.00056   0.00064   0.00198   0.00245   0.00246
     Eigenvalues ---    0.00388   0.00450   0.00617   0.00618   0.00629
     Eigenvalues ---    0.00669   0.00842   0.00850   0.01329   0.01593
     Eigenvalues ---    0.01834   0.01977   0.02026   0.02537   0.02540
     Eigenvalues ---    0.03054   0.03251   0.04062   0.04162   0.04426
     Eigenvalues ---    0.04504   0.04700   0.05395   0.05520   0.06426
     Eigenvalues ---    0.06437   0.06910   0.06942   0.07020   0.07050
     Eigenvalues ---    0.07053   0.07287   0.07682   0.07746   0.09655
     Eigenvalues ---    0.10182   0.10461   0.10475   0.11824   0.11936
     Eigenvalues ---    0.11996   0.12276   0.12528   0.12785   0.13364
     Eigenvalues ---    0.13374   0.13513   0.13652   0.14848   0.15675
     Eigenvalues ---    0.15871   0.16142   0.19552   0.20247   0.20623
     Eigenvalues ---    0.21463   0.22418   0.24572   0.25897   0.28928
     Eigenvalues ---    0.29777   0.30833   0.30864   0.31051   0.31815
     Eigenvalues ---    0.32889   0.34665   0.36575   0.38337   0.38428
     Eigenvalues ---    0.38823   0.41269   0.42800   0.46258   0.47949
     Eigenvalues ---    0.48782   0.48792   0.49301   0.52195   0.53443
     Eigenvalues ---    0.53448   0.54380   0.55829   0.64274   0.68651
     Eigenvalues ---    0.71534   0.73455   0.74553   0.86039   0.86748
     Eigenvalues ---    0.90959   0.92135   0.94258   0.95027   0.95197
     Eigenvalues ---    0.95574   0.97460   1.03051   1.05673   1.13793
     Eigenvalues ---    1.15700   1.17333   1.18295   1.21325   1.26790
     Eigenvalues ---    1.32278   1.37949   1.37981   1.45804   1.48014
     Eigenvalues ---    1.49559   1.52406   1.54141   1.61379   1.64636
     Eigenvalues ---    1.66498   1.67637   1.75266   1.78671   1.80253
     Eigenvalues ---    1.82242
 Angle between quadratic step and forces=  60.08 degrees.
 Linear search not attempted -- first point.
 B after Tr=     0.000000   -0.000228   -0.000005
         Rot=    1.000000   -0.000000   -0.000000   -0.000000 Ang=  -0.00 deg.
 Variable       Old X    -DE/DX   Delta X   Delta X   Delta X     New X
                                 (Linear)    (Quad)   (Total)
    X1        0.00000  -0.00000   0.00000  -0.00000  -0.00000   0.00000
    Y1        1.30801  -0.00501   0.00000  -0.01252  -0.01275   1.29526
    Z1        0.00024  -0.00001   0.00000  -0.00006  -0.00006   0.00018
    X2       -2.33250   0.02137   0.00000   0.02661   0.02661  -2.30589
    Y2        2.56510   0.00263   0.00000  -0.00323  -0.00346   2.56164
    Z2        0.00008   0.00000   0.00000   0.00001   0.00001   0.00009
    X3       -2.34256   0.00358   0.00000   0.01682   0.01682  -2.32575
    Y3        5.18990   0.00422   0.00000   0.00565   0.00542   5.19532
    Z3       -0.00001   0.00000   0.00000   0.00005   0.00005   0.00004
    X4        0.00000  -0.00000   0.00000  -0.00000  -0.00000   0.00000
    Y4        6.44017  -0.00017   0.00000   0.01444   0.01421   6.45438
    Z4        0.00003  -0.00000   0.00000   0.00004   0.00004   0.00006
    X5        2.34257  -0.00358   0.00000  -0.01682  -0.01682   2.32575
    Y5        5.18990   0.00422   0.00000   0.00565   0.00542   5.19532
    Z5        0.00008   0.00000   0.00000   0.00003   0.00003   0.00011
    X6        2.33251  -0.02137   0.00000  -0.02661  -0.02661   2.30590
    Y6        2.56510   0.00263   0.00000  -0.00323  -0.00346   2.56164
    Z6        0.00016   0.00000   0.00000  -0.00001  -0.00001   0.00015
    X7       -4.07138  -0.00018   0.00000   0.01330   0.01330  -4.05808
    Y7        6.28718   0.00060   0.00000   0.00256   0.00233   6.28952
    Z7       -0.00009  -0.00000   0.00000   0.00007   0.00007  -0.00002
    X8        0.00000   0.00000   0.00000  -0.00000  -0.00000  -0.00000
    Y8        8.49599  -0.00100   0.00000   0.01159   0.01136   8.50736
    Z8       -0.00002  -0.00000   0.00000   0.00005   0.00005   0.00003
    X9        4.07138   0.00018   0.00000  -0.01330  -0.01330   4.05808
    Y9        6.28718   0.00060   0.00000   0.00257   0.00234   6.28952
    Z9        0.00009  -0.00000   0.00000   0.00002   0.00002   0.00011
   X10        6.91951  -0.00433   0.00000  -0.00969  -0.00969   6.90982
   Y10        1.09445  -0.00236   0.00000  -0.00654  -0.00676   1.08769
   Z10       -0.00004   0.00000   0.00000  -0.00002  -0.00003  -0.00007
   X11        3.56797   0.00482   0.00000  -0.00053  -0.00053   3.56744
   Y11       -1.69880   0.00174   0.00000   0.00136   0.00113  -1.69766
   Z11        0.00021  -0.00001   0.00000  -0.00006  -0.00006   0.00015
   X12        7.87222   0.00024   0.00000  -0.00992  -0.00992   7.86231
   Y12       -1.39423  -0.00065   0.00000  -0.00378  -0.00401  -1.39824
   Z12       -0.00019   0.00000   0.00000   0.00000  -0.00001  -0.00020
   X13        8.55197   0.00368   0.00000  -0.01131  -0.01131   8.54066
   Y13        3.14391   0.00197   0.00000  -0.00066  -0.00089   3.14301
   Z13       -0.00010  -0.00000   0.00000  -0.00003  -0.00004  -0.00013
   X14       10.45003  -0.00005   0.00000  -0.01238  -0.01238  10.43765
   Y14       -1.89256   0.00218   0.00000  -0.00103  -0.00126  -1.89382
   Z14       -0.00038  -0.00000   0.00000   0.00002   0.00001  -0.00037
   X15       11.15326  -0.00358   0.00000  -0.01847  -0.01847  11.13479
   Y15        2.64729   0.00237   0.00000  -0.00113  -0.00136   2.64593
   Z15       -0.00032   0.00000   0.00000  -0.00001  -0.00001  -0.00033
   X16        7.86550   0.00025   0.00000  -0.01113  -0.01113   7.85437
   Y16        5.07346  -0.00050   0.00000  -0.00226  -0.00249   5.07097
   Z16        0.00002  -0.00000   0.00000  -0.00005  -0.00005  -0.00003
   X17       12.08399  -0.00092   0.00000  -0.01592  -0.01592  12.06807
   Y17        0.18648  -0.00401   0.00000  -0.00486  -0.00509   0.18138
   Z17       -0.00045  -0.00000   0.00000   0.00002   0.00001  -0.00044
   X18       11.16612   0.00002   0.00000  -0.00971  -0.00971  11.15641
   Y18       -3.81599   0.00044   0.00000   0.00118   0.00095  -3.81503
   Z18       -0.00047   0.00000   0.00000   0.00004   0.00003  -0.00044
   X19       12.46556  -0.00040   0.00000  -0.02016  -0.02016  12.44540
   Y19        4.22651  -0.00033   0.00000  -0.00161  -0.00184   4.22467
   Z19       -0.00037   0.00000   0.00000  -0.00001  -0.00001  -0.00039
   X20       14.10968   0.00044   0.00000  -0.01434  -0.01434  14.09533
   Y20       -0.13459   0.00009   0.00000  -0.00246  -0.00268  -0.13728
   Z20       -0.00061   0.00000   0.00000   0.00004   0.00003  -0.00058
   X21       -6.91950   0.00434   0.00000   0.00969   0.00969  -6.90981
   Y21        1.09444  -0.00236   0.00000  -0.00654  -0.00677   1.08768
   Z21       -0.00007  -0.00000   0.00000  -0.00000  -0.00000  -0.00007
   X22       -3.56796  -0.00482   0.00000   0.00053   0.00053  -3.56743
   Y22       -1.69880   0.00174   0.00000   0.00136   0.00113  -1.69767
   Z22        0.00012  -0.00001   0.00000  -0.00004  -0.00004   0.00008
   X23       -7.87221  -0.00024   0.00000   0.00992   0.00992  -7.86230
   Y23       -1.39424  -0.00065   0.00000  -0.00378  -0.00401  -1.39825
   Z23       -0.00013   0.00000   0.00000   0.00000  -0.00000  -0.00013
   X24       -8.55197  -0.00369   0.00000   0.01131   0.01131  -8.54066
   Y24        3.14389   0.00197   0.00000  -0.00066  -0.00089   3.14300
   Z24       -0.00010  -0.00000   0.00000  -0.00001  -0.00001  -0.00011
   X25      -10.45003   0.00005   0.00000   0.01239   0.01239 -10.43764
   Y25       -1.89258   0.00218   0.00000  -0.00103  -0.00126  -1.89383
   Z25       -0.00020   0.00000   0.00000   0.00000  -0.00000  -0.00020
   X26      -11.15326   0.00359   0.00000   0.01848   0.01848 -11.13479
   Y26        2.64728   0.00237   0.00000  -0.00113  -0.00136   2.64592
   Z26       -0.00018   0.00000   0.00000  -0.00001  -0.00001  -0.00020
   X27       -7.86550  -0.00025   0.00000   0.01114   0.01114  -7.85437
   Y27        5.07345  -0.00050   0.00000  -0.00227  -0.00249   5.07096
   Z27       -0.00004  -0.00000   0.00000  -0.00002  -0.00002  -0.00006
   X28      -12.08397   0.00092   0.00000   0.01592   0.01592 -12.06806
   Y28        0.18646  -0.00401   0.00000  -0.00486  -0.00509   0.18137
   Z28       -0.00023  -0.00000   0.00000  -0.00001  -0.00001  -0.00024
   X29      -11.16611  -0.00002   0.00000   0.00971   0.00971 -11.15640
   Y29       -3.81600   0.00044   0.00000   0.00118   0.00095  -3.81505
   Z29       -0.00021  -0.00000   0.00000   0.00001   0.00000  -0.00020
   X30      -12.46556   0.00040   0.00000   0.02016   0.02016 -12.44540
   Y30        4.22649  -0.00033   0.00000  -0.00161  -0.00183   4.22465
   Z30       -0.00021   0.00000   0.00000  -0.00002  -0.00002  -0.00022
   X31      -14.10967  -0.00044   0.00000   0.01434   0.01434 -14.09532
   Y31       -0.13461   0.00009   0.00000  -0.00245  -0.00268  -0.13730
   Z31       -0.00028   0.00000   0.00000  -0.00001  -0.00001  -0.00029
   X32       -4.30475  -0.01333   0.00000   0.00026   0.00026  -4.30449
   Y32        0.85518  -0.01393   0.00000  -0.01294  -0.01317   0.84201
   Z32        0.00003   0.00000   0.00000   0.00001   0.00000   0.00003
   X33       -5.81470   0.00362   0.00000   0.01140   0.01140  -5.80331
   Y33       -3.00699   0.00429   0.00000   0.00145   0.00122  -3.00577
   Z33       -0.00008   0.00000   0.00000   0.00000  -0.00000  -0.00008
   X34        4.30476   0.01333   0.00000  -0.00026  -0.00026   4.30450
   Y34        0.85519  -0.01393   0.00000  -0.01294  -0.01317   0.84202
   Z34        0.00017   0.00000   0.00000  -0.00003  -0.00003   0.00014
   X35        5.81472  -0.00362   0.00000  -0.01140  -0.01140   5.80332
   Y35       -3.00698   0.00429   0.00000   0.00145   0.00122  -3.00577
   Z35       -0.00009   0.00000   0.00000  -0.00001  -0.00001  -0.00011
   X36        6.00504  -0.00014   0.00000  -0.01356  -0.01356   5.99148
   Y36       -5.71099  -0.00248   0.00000  -0.00051  -0.00074  -5.71173
   Z36        0.00001   0.00000   0.00000   0.00002   0.00001   0.00001
   X37        7.00268  -0.00001   0.00000  -0.01078  -0.01078   6.99190
   Y37       -6.38852   0.00064   0.00000   0.00670   0.00648  -6.38204
   Z37       -1.68631   0.00038   0.00000   0.00066   0.00065  -1.68566
   X38        7.00188  -0.00001   0.00000  -0.01079  -0.01079   6.99108
   Y38       -6.38852   0.00064   0.00000   0.00674   0.00651  -6.38201
   Z38        1.68680  -0.00038   0.00000  -0.00060  -0.00061   1.68619
   X39        4.10017   0.00023   0.00000  -0.01369  -0.01369   4.08648
   Y39       -6.50617   0.00048   0.00000   0.00280   0.00257  -6.50360
   Z39       -0.00047   0.00000   0.00000   0.00002   0.00001  -0.00046
   X40       -6.00502   0.00014   0.00000   0.01356   0.01356  -5.99146
   Y40       -5.71100  -0.00248   0.00000  -0.00052  -0.00074  -5.71174
   Z40        0.00008   0.00000   0.00000   0.00002   0.00001   0.00009
   X41       -7.00174   0.00001   0.00000   0.01078   0.01078  -6.99096
   Y41       -6.38851   0.00064   0.00000   0.00674   0.00651  -6.38200
   Z41        1.68696  -0.00038   0.00000  -0.00061  -0.00061   1.68634
   X42       -7.00277   0.00001   0.00000   0.01079   0.01079  -6.99199
   Y42       -6.38856   0.00064   0.00000   0.00671   0.00648  -6.38208
   Z42       -1.68616   0.00038   0.00000   0.00066   0.00065  -1.68551
   X43       -4.10015  -0.00023   0.00000   0.01369   0.01369  -4.08646
   Y43       -6.50617   0.00048   0.00000   0.00279   0.00257  -6.50360
   Z43       -0.00052   0.00000   0.00000   0.00004   0.00003  -0.00049
   X44        0.00001  -0.00000   0.00000   0.00000   0.00000   0.00001
   Y44       -2.23601   0.01016   0.00000   0.02169   0.02146  -2.21455
   Z44        0.00010   0.00001   0.00000  -0.00003  -0.00004   0.00006
         Item               Value     Threshold  Converged?
 Maximum Force            0.021368     0.000450     NO 
 RMS     Force            0.004044     0.000300     NO 
 Maximum Displacement     0.026608     0.001800     NO 
 RMS     Displacement     0.008441     0.001200     NO 
 Predicted change in Energy=-1.123861D-03
 GradGradGradGradGradGradGradGradGradGradGradGradGradGradGradGradGradGrad

 Unable to Open any file for archive entry.
 1\1\GINC-X11P1N5\Force\UPBE1PBE\GenECP\C22H17Co1N4(3)\MAYUMIAO\17-Jul-
 2024\0\\# pbe1pbe em=gd3bj genecp g09default scf=(xqc,maxcycle=64) for
 ce guess=read nosymm\\Title Card\\0,3\C,0.00000223,0.6921715,0.0001260
 4\C,-1.23430638,1.35739118,0.00004228\C,-1.23963108,2.74637587,-0.0000
 0623\C,0.00000204,3.40799233,0.00001447\C,1.23963383,2.74637594,0.0000
 442\C,1.23431069,1.35739132,0.00008476\H,-2.15448139,3.3270333,-0.0000
 4705\H,0.00000083,4.49588682,-0.00001069\H,2.15448302,3.32703392,0.000
 04792\C,3.66164534,0.57915784,-0.00002157\C,1.88808618,-0.89896363,0.0
 0011283\C,4.16580187,-0.73779331,-0.00010227\C,4.52550881,1.66368391,-
 0.00005222\C,5.52991984,-1.00149935,-0.00020302\C,5.90205303,1.4008857
 3,-0.00016853\H,4.1622447,2.68476157,0.00001275\C,6.39457012,0.0986783
 7,-0.00024055\H,5.9088566,-2.01933247,-0.00024867\H,6.59648929,2.23657
 166,-0.00019625\H,7.46651883,-0.07122365,-0.00032391\C,-3.66164343,0.5
 7915342,-0.00003463\C,-1.88808168,-0.89896588,0.00006372\C,-4.16579518
 ,-0.73779775,-0.0000675\C,-4.52550631,1.66367737,-0.00005028\C,-5.5299
 1637,-1.00150763,-0.00010378\C,-5.90205312,1.40087833,-0.00009681\H,-4
 .16224452,2.68475673,-0.00002171\C,-6.39456414,0.09866908,-0.00012102\
 H,-5.90884928,-2.01934031,-0.00010924\H,-6.59648846,2.23656181,-0.0001
 0886\H,-7.46651457,-0.07123462,-0.00015065\N,-2.27797772,0.45254399,0.
 0000159\N,-3.07700894,-1.59123206,-0.00004071\N,2.27798168,0.45254747,
 0.00009179\N,3.0770166,-1.59122769,-0.00004964\C,3.17773149,-3.0221251
 3,0.00000286\H,3.70565742,-3.38065964,-0.89235477\H,3.70523289,-3.3806
 6101,0.89261853\H,2.16971742,-3.44291584,-0.0002478\C,-3.17772186,-3.0
 2212844,0.00004116\H,-3.70516184,-3.38065327,0.89269828\H,-3.70570756,
 -3.38067803,-0.89227505\H,-2.16970819,-3.44291696,-0.00027488\Co,0.000
 00322,-1.18324573,0.00005077\\Version=ES64L-G16RevC.01\HF=-1212.136428
 \S2=2.162353\S2-1=0.\S2A=2.0037\RMSD=2.457e-09\RMSF=4.044e-03\Dipole=-
 0.0000171,-1.3533654,-0.0001474\Quadrupole=8.3195364,11.1906432,-19.51
 01796,-0.0000164,-0.0003049,0.0005735\PG=C01 [X(C22H17Co1N4)]\\@
 The archive entry for this job was punched.


 ... SUBJECTS WHICH DISCLOSE THEIR FULL POWER, MEANING AND BEAUTY AS SOON
 AS THEY ARE PRESENTED TO THE MIND HAVE VERY LITTLE OF THOSE QUALITIES
 TO DISCLOSE.
                           -- CHARLES DUTTON (1882)
 Job cpu time:       0 days  0 hours 53 minutes 43.9 seconds.
 Elapsed time:       0 days  0 hours  0 minutes 58.5 seconds.
 File lengths (MBytes):  RWF=    184 Int=      0 D2E=      0 Chk=     72 Scr=      1
 Normal termination of Gaussian 16 at Wed Jul 17 20:56:58 2024.
