 Entering Gaussian System, Link 0=g16
 Input=JOBS/16_A.gjf
 Output=JOBS/16_A.log
 Initial command:
 /data/app/gaussian/C01-avx2//g16/l1.exe "/tmp/Gau-2062255.inp" -scrdir="/tmp/"
 Entering Link 1 = /data/app/gaussian/C01-avx2//g16/l1.exe PID=   2062256.
  
 Copyright (c) 1988-2019, Gaussian, Inc.  All Rights Reserved.
  
 This is part of the Gaussian(R) 16 program.  It is based on
 the Gaussian(R) 09 system (copyright 2009, Gaussian, Inc.),
 the Gaussian(R) 03 system (copyright 2003, Gaussian, Inc.),
 the Gaussian(R) 98 system (copyright 1998, Gaussian, Inc.),
 the Gaussian(R) 94 system (copyright 1995, Gaussian, Inc.),
 the Gaussian 92(TM) system (copyright 1992, Gaussian, Inc.),
 the Gaussian 90(TM) system (copyright 1990, Gaussian, Inc.),
 the Gaussian 88(TM) system (copyright 1988, Gaussian, Inc.),
 the Gaussian 86(TM) system (copyright 1986, Carnegie Mellon
 University), and the Gaussian 82(TM) system (copyright 1983,
 Carnegie Mellon University). Gaussian is a federally registered
 trademark of Gaussian, Inc.
  
 This software contains proprietary and confidential information,
 including trade secrets, belonging to Gaussian, Inc.
  
 This software is provided under written license and may be
 used, copied, transmitted, or stored only in accord with that
 written license.
  
 The following legend is applicable only to US Government
 contracts under FAR:
  
                    RESTRICTED RIGHTS LEGEND
  
 Use, reproduction and disclosure by the US Government is
 subject to restrictions as set forth in subparagraphs (a)
 and (c) of the Commercial Computer Software - Restricted
 Rights clause in FAR 52.227-19.
  
 Gaussian, Inc.
 340 Quinnipiac St., Bldg. 40, Wallingford CT 06492
  
  
 ---------------------------------------------------------------
 Warning -- This program may not be used in any manner that
 competes with the business of Gaussian, Inc. or will provide
 assistance to any competitor of Gaussian, Inc.  The licensee
 of this program is prohibited from giving any competitor of
 Gaussian, Inc. access to this program.  By using this program,
 the user acknowledges that Gaussian, Inc. is engaged in the
 business of creating and licensing software in the field of
 computational chemistry and represents and warrants to the
 licensee that it is not a competitor of Gaussian, Inc. and that
 it will not use this program in any manner prohibited above.
 ---------------------------------------------------------------
  

 Cite this work as:
 Gaussian 16, Revision C.01,
 M. J. Frisch, G. W. Trucks, H. B. Schlegel, G. E. Scuseria, 
 M. A. Robb, J. R. Cheeseman, G. Scalmani, V. Barone, 
 G. A. Petersson, H. Nakatsuji, X. Li, M. Caricato, A. V. Marenich, 
 J. Bloino, B. G. Janesko, R. Gomperts, B. Mennucci, H. P. Hratchian, 
 J. V. Ortiz, A. F. Izmaylov, J. L. Sonnenberg, D. Williams-Young, 
 F. Ding, F. Lipparini, F. Egidi, J. Goings, B. Peng, A. Petrone, 
 T. Henderson, D. Ranasinghe, V. G. Zakrzewski, J. Gao, N. Rega, 
 G. Zheng, W. Liang, M. Hada, M. Ehara, K. Toyota, R. Fukuda, 
 J. Hasegawa, M. Ishida, T. Nakajima, Y. Honda, O. Kitao, H. Nakai, 
 T. Vreven, K. Throssell, J. A. Montgomery, Jr., J. E. Peralta, 
 F. Ogliaro, M. J. Bearpark, J. J. Heyd, E. N. Brothers, K. N. Kudin, 
 V. N. Staroverov, T. A. Keith, R. Kobayashi, J. Normand, 
 K. Raghavachari, A. P. Rendell, J. C. Burant, S. S. Iyengar, 
 J. Tomasi, M. Cossi, J. M. Millam, M. Klene, C. Adamo, R. Cammi, 
 J. W. Ochterski, R. L. Martin, K. Morokuma, O. Farkas, 
 J. B. Foresman, and D. J. Fox, Gaussian, Inc., Wallingford CT, 2019.
 
 ******************************************
 Gaussian 16:  ES64L-G16RevC.01  3-Jul-2019
                17-Jul-2024 
 ******************************************
 %chk=a.chk
 %nprocshared=56
 Will use up to   56 processors via shared memory.
 %mem=96gb
 ----------------------------------------------------------------------
 # pbe1pbe em=gd3bj genecp g09default scf=(xqc,maxcycle=64) force guess
 =read nosymm
 ----------------------------------------------------------------------
 1/10=7,30=1,38=1,158=3,167=1/1,3;
 2/12=2,15=1,17=6,18=5,40=1/2;
 3/5=7,11=2,16=1,17=8,25=1,27=10,30=1,71=1,74=-13,75=-4,116=-2,124=41,158=3/1,2,3;
 4/5=1,60=-1/1;
 5/5=2,7=64,8=3,13=1,38=6,87=10/2,8;
 6/7=2,8=2,9=2,10=2,28=1,87=10/1;
 7/29=1,30=1,87=10/1,2,3,16;
 1/10=7,30=1,158=3,167=1/3;
 99//99;
 Using 2006 physical constants.
 ----------
 Title Card
 ----------
 Symbolic Z-matrix:
 Charge =  0 Multiplicity = 1
 6                     0.        0.74476   0.00012 
 6                    -1.27035   1.35524   0.00004 
 6                    -1.25257   2.7429   -0.00001 
 6                     0.        3.38709   0.00001 
 6                     1.25257   2.7429    0.00004 
 6                     1.27035   1.35524   0.00008 
 1                    -2.16174   3.33172  -0.00005 
 1                     0.        4.47472  -0.00001 
 1                     2.16174   3.33172   0.00005 
 6                     3.67455   0.58461  -0.00002 
 6                     1.89388  -0.90058   0.00011 
 6                     4.16873  -0.73926  -0.00009 
 6                     4.53217   1.66498  -0.00005 
 6                     5.53141  -1.00123  -0.0002 
 6                     5.91425   1.40182  -0.00017 
 1                     4.16459   2.68462   0.00001 
 6                     6.39874   0.10303  -0.00024 
 1                     5.90831  -2.01953  -0.00025 
 1                     6.60449   2.23949  -0.0002 
 1                     7.46932  -0.07096  -0.00033 
 6                    -3.67455   0.5846   -0.00004 
 6                    -1.89388  -0.90059   0.00008 
 6                    -4.16872  -0.73927  -0.00007 
 6                    -4.53217   1.66498  -0.00005 
 6                    -5.53141  -1.00123  -0.0001 
 6                    -5.91425   1.40181  -0.0001 
 1                    -4.16459   2.68461  -0.00002 
 6                    -6.39873   0.10302  -0.00012 
 1                    -5.9083   -2.01954  -0.00011 
 1                    -6.60449   2.23948  -0.00011 
 1                    -7.46931  -0.07098  -0.00015 
 7                    -2.28933   0.46968   0.00001 
 7                    -3.09144  -1.59706  -0.00004 
 7                     2.28933   0.46968   0.00008 
 7                     3.09145  -1.59705  -0.00005 
 6                     3.18453  -3.02244   0.00001 
 1                     3.70693  -3.38824  -0.89361 
 1                     3.7065   -3.38825   0.89388 
 1                     2.17636  -3.44597  -0.00026 
 6                    -3.18452  -3.02244   0.00004 
 1                    -3.70643  -3.38824   0.89396 
 1                    -3.70698  -3.38826  -0.89353 
 1                    -2.17635  -3.44598  -0.00028 
 27                    0.       -1.20152   0.00006 
 

 GradGradGradGradGradGradGradGradGradGradGradGradGradGradGradGradGradGrad
 Berny optimization.
 Initialization pass.
 Trust Radius=3.00D-01 FncErr=1.00D-07 GrdErr=1.00D-07 EigMax=2.50D+02 EigMin=1.00D-04
 Number of steps in this run=      2 maximum allowed number of steps=      2.
 GradGradGradGradGradGradGradGradGradGradGradGradGradGradGradGradGradGrad

                          Input orientation:                          
 ---------------------------------------------------------------------
 Center     Atomic      Atomic             Coordinates (Angstroms)
 Number     Number       Type             X           Y           Z
 ---------------------------------------------------------------------
      1          6           0        0.000002    0.744763    0.000120
      2          6           0       -1.270352    1.355237    0.000037
      3          6           0       -1.252565    2.742904   -0.000008
      4          6           0        0.000001    3.387087    0.000014
      5          6           0        1.252567    2.742905    0.000042
      6          6           0        1.270355    1.355237    0.000076
      7          1           0       -2.161736    3.331720   -0.000046
      8          1           0        0.000001    4.474718   -0.000011
      9          1           0        2.161737    3.331721    0.000048
     10          6           0        3.674551    0.584606   -0.000022
     11          6           0        1.893885   -0.900584    0.000113
     12          6           0        4.168728   -0.739264   -0.000094
     13          6           0        4.532173    1.664984   -0.000054
     14          6           0        5.531410   -1.001226   -0.000197
     15          6           0        5.914253    1.401822   -0.000170
     16          1           0        4.164595    2.684616    0.000011
     17          6           0        6.398738    0.103028   -0.000242
     18          1           0        5.908310   -2.019530   -0.000246
     19          1           0        6.604494    2.239486   -0.000196
     20          1           0        7.469316   -0.070964   -0.000327
     21          6           0       -3.674549    0.584602   -0.000037
     22          6           0       -1.893881   -0.900586    0.000080
     23          6           0       -4.168721   -0.739268   -0.000067
     24          6           0       -4.532171    1.664978   -0.000053
     25          6           0       -5.531406   -1.001234   -0.000101
     26          6           0       -5.914253    1.401815   -0.000098
     27          1           0       -4.164595    2.684611   -0.000023
     28          6           0       -6.398733    0.103019   -0.000122
     29          1           0       -5.908302   -2.019537   -0.000107
     30          1           0       -6.604493    2.239476   -0.000108
     31          1           0       -7.469311   -0.070975   -0.000152
     32          7           0       -2.289327    0.469682    0.000013
     33          7           0       -3.091438   -1.597058   -0.000044
     34          7           0        2.289330    0.469684    0.000082
     35          7           0        3.091446   -1.597054   -0.000049
     36          6           0        3.184528   -3.022440    0.000006
     37          1           0        3.706930   -3.388241   -0.893612
     38          1           0        3.706497   -3.388251    0.893881
     39          1           0        2.176356   -3.445975   -0.000257
     40          6           0       -3.184518   -3.022443    0.000045
     41          1           0       -3.706426   -3.388241    0.893962
     42          1           0       -3.706980   -3.388261   -0.893531
     43          1           0       -2.176346   -3.445976   -0.000284
     44         27           0        0.000005   -1.201515    0.000063
 ---------------------------------------------------------------------
                    Distance matrix (angstroms):
                    1          2          3          4          5
     1  C    0.000000
     2  C    1.409424   0.000000
     3  C    2.358282   1.387782   0.000000
     4  C    2.642324   2.396291   1.408508   0.000000
     5  C    2.358281   2.879365   2.505133   1.408507   0.000000
     6  C    1.409424   2.540706   2.879366   2.396291   1.387781
     7  H    3.371270   2.168192   1.083188   2.162446   3.464704
     8  H    3.729954   3.368227   2.137311   1.087631   2.137311
     9  H    3.371269   3.960521   3.464703   2.162445   1.083187
    10  C    3.678038   5.004591   5.379101   4.621278   3.244111
    11  C    2.508777   3.886016   4.814059   4.687315   3.699500
    12  C    4.424998   5.828423   6.443284   5.865582   4.541970
    13  C    4.624649   5.810786   5.884311   4.848321   3.452206
    14  C    5.800427   7.198394   7.748602   7.060720   5.685685
    15  C    5.950638   7.184756   7.291213   6.238562   4.850754
    16  H    4.594221   5.595167   5.417474   4.223423   2.912611
    17  C    6.430836   7.770648   8.093911   7.192279   5.783773
    18  H    6.522991   7.932353   8.599937   8.008721   6.660084
    19  H    6.771522   7.924335   7.873170   6.703455   5.375551
    20  H    7.513725   8.855272   9.164555   8.230965   6.823916
    21  C    3.678040   2.524686   3.244113   4.621281   5.379103
    22  C    2.508778   2.340411   3.699501   4.687316   4.814059
    23  C    4.424997   3.575960   4.541969   5.865582   6.443283
    24  C    4.624649   3.276492   3.452207   4.848323   5.884311
    25  C    5.800429   4.869244   5.685688   7.060724   7.748604
    26  C    5.950641   4.644135   4.850758   6.238566   7.291217
    27  H    4.594222   3.184946   2.912613   4.223426   5.417476
    28  C    6.430835   5.279047   5.783773   7.192280   8.093911
    29  H    6.522991   5.735824   6.660085   8.008722   8.599936
    30  H    6.771523   5.406935   5.375553   6.703458   7.873172
    31  H    7.513725   6.360911   6.823917   8.230968   9.164556
    32  N    2.305796   1.350006   2.498483   3.708406   4.208629
    33  N    3.878289   3.468775   4.713462   5.865040   6.140494
    34  N    2.305796   3.668179   4.208629   3.708405   2.498482
    35  N    3.878290   5.267001   6.140494   5.865040   4.713461
    36  C    4.932852   6.245799   7.275094   7.157042   6.080434
    37  H    5.623326   6.933435   7.936376   7.774636   6.664343
    38  H    5.623053   6.933157   7.936146   7.774466   6.664218
    39  H    4.722161   5.910281   7.075290   7.171280   6.257445
    40  C    4.932850   4.777878   6.080434   7.157041   7.275092
    41  H    5.623013   5.406860   6.664199   7.774433   7.936098
    42  H    5.623363   5.407069   6.664362   7.774669   7.936421
    43  H    4.722159   4.885946   6.257445   7.171279   7.075288
    44  Co   1.946279   2.854958   4.138524   4.588602   4.138522
                    6          7          8          9         10
     6  C    0.000000
     7  H    3.960522   0.000000
     8  H    3.368227   2.445311   0.000000
     9  H    2.168191   4.323473   2.445311   0.000000
    10  C    2.524685   6.450495   5.351195   3.136120   0.000000
    11  C    2.340411   5.861780   5.699182   4.240773   2.318742
    12  C    3.575961   7.526465   6.675619   4.538825   1.413097
    13  C    3.276492   6.898292   5.332466   2.897754   1.379395
    14  C    4.869241   8.829435   7.783473   5.489001   2.441882
    15  C    4.644132   8.303379   6.664913   4.219702   2.384137
    16  H    3.184945   6.359340   4.533024   2.104800   2.156428
    17  C    5.279048   9.149108   7.749549   5.326973   2.766426
    18  H    5.735824   9.683053   8.779713   6.532434   3.430919
    19  H    5.406934   8.834012   6.972488   4.575048   3.364995
    20  H    6.360910  10.214471   8.743792   6.304654   3.850975
    21  C    5.004593   3.136122   5.351197   6.450496   7.349100
    22  C    3.886017   4.240774   5.699182   5.861780   5.763093
    23  C    5.828421   4.538825   6.675618   7.526463   7.954216
    24  C    5.810787   2.897756   5.332467   6.898292   8.277529
    25  C    7.198396   5.489004   7.783476   8.829436   9.341549
    26  C    7.184759   4.219706   6.664918   8.303382   9.623565
    27  H    5.595168   2.104802   4.533027   6.359341   8.115555
    28  C    7.770647   5.326974   7.749551   9.149107  10.084789
    29  H    7.932353   6.532436   8.779714   9.683052   9.930390
    30  H    7.924336   4.575051   6.972492   8.834013  10.411405
    31  H    8.855272   6.304657   8.743795  10.214472  11.163130
    32  N    3.668180   2.864881   4.613169   5.291809   5.964985
    33  N    5.267000   5.015696   6.813476   7.203382   7.109028
    34  N    1.350006   5.291809   4.613168   2.864880   1.389980
    35  N    3.468775   7.203384   6.813475   5.015694   2.258242
    36  C    4.777878   8.304089   8.145464   6.435951   3.640179
    37  H    5.407048   8.966470   8.738762   6.952995   4.072232
    38  H    5.406881   8.966231   8.738618   6.952931   4.072307
    39  H    4.885947   8.047123   8.214249   6.777712   4.300020
    40  C    6.245797   6.435952   8.145464   8.304086   7.749686
    41  H    6.933106   6.952927   8.738587   8.966176   8.429801
    42  H    6.933482   6.953003   8.738794   8.966520   8.430245
    43  H    5.910279   6.777713   8.214248   8.047121   7.104829
    44  Co   2.854956   5.022286   5.676233   5.022282   4.085648
                   11         12         13         14         15
    11  C    0.000000
    12  C    2.280555   0.000000
    13  C    3.680042   2.431564   0.000000
    14  C    3.638917   1.387634   2.847306   0.000000
    15  C    4.632973   2.762447   1.406912   2.433354   0.000000
    16  H    4.243794   3.423882   1.083865   3.931108   2.169531
    17  C    4.615294   2.383779   2.433880   1.404150   1.386215
    18  H    4.167451   2.159914   3.933115   1.085816   3.421357
    19  H    5.661261   3.847845   2.150480   3.413755   1.085409
    20  H    5.636816   3.367567   3.411792   2.149620   2.141803
    21  C    5.763093   7.954220   8.277530   9.341549   9.623564
    22  C    3.787766   6.064755   6.919272   7.425973   8.140519
    23  C    6.064751   8.337448   9.026958   9.703667  10.307795
    24  C    6.919270   9.026960   9.064344  10.410778  10.449738
    25  C    7.425973   9.703670  10.410780  11.062816  11.695204
    26  C    8.140520  10.307799  10.449741  11.695204  11.828506
    27  H    7.039801   9.009283   8.756335  10.372941  10.160154
    28  C    8.353127  10.600974  11.041940  11.981137  12.381297
    29  H    7.882016  10.158032  11.071550  11.484945  12.307661
    30  H    9.059934  11.177440  11.151474  12.561142  12.546740
    31  H    9.399878  11.657211  12.126384  13.033960  13.464358
    32  N    4.401919   6.570237   6.925432   7.957857   8.256368
    33  N    5.033739   7.310665   8.292187   8.643409   9.491879
    34  N    1.426188   2.234656   2.541473   3.560148   3.742853
    35  N    1.385360   1.377077   3.566033   2.511660   4.118435
    36  C    2.483552   2.486271   4.877304   3.097283   5.198605
    37  H    3.205357   2.833498   5.197553   3.134447   5.349320
    38  H    3.205132   2.833722   5.197697   3.134896   5.349610
    39  H    2.561016   3.360927   5.627768   4.151287   6.121520
    40  C    5.503859   7.699553   9.028804   8.947218  10.117399
    41  H    6.192809   8.356701   9.706125   9.583056  10.784324
    42  H    6.193288   8.357163   9.706556   9.583518  10.784763
    43  H    4.800604   6.898279   8.433632   8.086180   9.431805
    44  Co   1.917639   4.194273   5.362590   5.535030   6.461865
                   16         17         18         19         20
    16  H    0.000000
    17  C    3.414087   0.000000
    18  H    5.016924   2.178479   0.000000
    19  H    2.480171   2.146343   4.315540   0.000000
    20  H    4.302837   1.084624   2.496727   2.467002   0.000000
    21  C    8.115555  10.084792   9.930392  10.411405  11.163131
    22  C    7.039801   8.353130   7.882019   9.059935   9.399879
    23  C    9.009280  10.600974  10.158032  11.177438  11.657209
    24  C    8.756334  11.041941  11.071550  11.151473  12.126383
    25  C   10.372942  11.981141  11.484948  12.561144  13.033962
    26  C   10.160155  12.381301  12.307664  12.546741  13.464360
    27  H    8.329189  10.874216  11.117209  10.778284  11.955797
    28  C   10.874214  12.797471  12.488735  13.177571  13.869140
    29  H   11.117208  12.488736  11.816612  13.217766  13.518787
    30  H   10.778284  13.177573  13.217767  13.208987  14.262196
    31  H   11.955796  13.869141  13.518787  14.262196  14.938627
    32  N    6.823418   8.695798   8.567229   9.068200   9.773607
    33  N    8.425126   9.641252   9.009659  10.427376  10.670449
    34  N    2.902161   4.125733   4.392402   4.663993   5.208124
    35  N    4.414108   3.718664   2.848370   5.201975   4.636238
    36  C    5.790597   4.483269   2.902554   6.275670   5.202943
    37  H    6.155292   4.498100   2.741815   6.392604   5.094883
    38  H    6.155370   4.498517   2.742415   6.392901   5.095371
    39  H    6.444939   5.515790   3.995275   7.206446   6.277429
    40  C    9.304836  10.080048   9.147970  11.113624  11.055107
    41  H    9.981568  10.728602   9.752749  11.780742  11.691932
    42  H    9.981981  10.729054   9.753214  11.781175  11.692385
    43  H    8.819960   9.280491   8.209532  10.460766  10.219076
    44  Co   5.696124   6.530362   5.964664   7.447131   7.554386
                   21         22         23         24         25
    21  C    0.000000
    22  C    2.318741   0.000000
    23  C    1.413095   2.280552   0.000000
    24  C    1.379394   3.680039   2.431563   0.000000
    25  C    2.441883   3.638917   1.387637   2.847307   0.000000
    26  C    2.384137   4.632973   2.762448   1.406914   2.433355
    27  H    2.156428   4.243793   3.423882   1.083865   3.931110
    28  C    2.766424   4.615291   2.383779   2.433880   1.404147
    29  H    3.430918   4.167448   2.159915   3.933115   1.085814
    30  H    3.364993   5.661259   3.847844   2.150481   3.413754
    31  H    3.850974   5.636814   3.367568   3.411793   2.149618
    32  N    1.389981   1.426187   2.234655   2.541473   3.560150
    33  N    2.258243   1.385358   1.377077   3.566033   2.511662
    34  N    5.964986   4.401920   6.570235   6.925432   7.957859
    35  N    7.109030   5.033741   7.310664   8.292188   8.643412
    36  C    7.749690   5.503863   7.699554   9.028805   8.947222
    37  H    8.430195   6.193238   8.357114   9.706505   9.583476
    38  H    8.429858   6.192867   8.356753   9.706178   9.583106
    39  H    7.104832   4.800608   6.898279   8.433633   8.086183
    40  C    3.640180   2.483550   2.486271   4.877304   3.097284
    41  H    4.072313   3.205116   2.833736   5.197705   3.134917
    42  H    4.072227   3.205370   2.833487   5.197545   3.134429
    43  H    4.300021   2.561015   3.360926   5.627767   4.151288
    44  Co   4.085653   1.917645   4.194275   5.362593   5.535036
                   26         27         28         29         30
    26  C    0.000000
    27  H    2.169533   0.000000
    28  C    1.386215   3.414087   0.000000
    29  H    3.421357   5.016924   2.178478   0.000000
    30  H    1.085407   2.480171   2.146343   4.315539   0.000000
    31  H    2.141802   4.302837   1.084626   2.496727   2.467002
    32  N    3.742855   2.902162   4.125731   4.392402   4.663993
    33  N    4.118437   4.414109   3.718663   2.848370   5.201975
    34  N    8.256370   6.823419   8.695797   8.567228   9.068200
    35  N    9.491882   8.425128   9.641251   9.009659  10.427377
    36  C   10.117403   9.304839  10.080048   9.147971  11.113626
    37  H   10.784719   9.981930  10.729009   9.753173  11.781129
    38  H   10.784376   9.981624  10.728648   9.752792  11.780792
    39  H    9.431809   8.819963   9.280490   8.209532  10.460768
    40  C    5.198607   5.790598   4.483268   2.902554   6.275670
    41  H    5.349624   6.155376   4.498532   2.742438   6.392914
    42  H    5.349309   6.155286   4.498083   2.741794   6.392591
    43  H    6.121522   6.444939   5.515788   3.995275   7.206445
    44  Co   6.461871   5.696128   6.530364   5.964667   7.447135
                   31         32         33         34         35
    31  H    0.000000
    32  N    5.208124   0.000000
    33  N    4.636238   2.216934   0.000000
    34  N    9.773607   4.578657   5.764035   0.000000
    35  N   10.670450   5.764036   6.182884   2.216934   0.000000
    36  C   11.055109   6.492919   6.435796   3.605039   1.428422
    37  H   11.692343   7.185905   7.086932   4.206170   2.094189
    38  H   11.691977   7.185580   7.086565   4.206056   2.094227
    39  H   10.219077   5.939250   5.582844   3.917288   2.062982
    40  C    5.202944   3.605039   1.428421   6.492917   6.435794
    41  H    5.095390   4.206053   2.094228   7.185520   7.086513
    42  H    5.094865   4.206172   2.094187   7.185960   7.086982
    43  H    6.277429   3.917288   2.062981   5.939248   5.582844
    44  Co   7.554390   2.834420   3.116645   2.834417   3.116642
                   36         37         38         39         40
    36  C    0.000000
    37  H    1.097847   0.000000
    38  H    1.097854   1.787493   0.000000
    39  H    1.093523   1.773153   1.773174   0.000000
    40  C    6.369046   6.958770   6.958365   5.377578   0.000000
    41  H    6.958320   7.625829   7.412923   5.950637   1.097854
    42  H    6.958815   7.413909   7.625909   5.951043   1.097846
    43  H    5.377579   5.950992   5.950690   4.352702   1.093522
    44  Co   3.668372   4.395647   4.395317   3.126356   3.668373
                   41         42         43         44
    41  H    0.000000
    42  H    1.787493   0.000000
    43  H    1.773176   1.773150   0.000000
    44  Co   4.395276   4.395691   3.126357   0.000000
 Symmetry turned off by external request.
 Stoichiometry    C22H17CoN4
 Framework group  C1[X(C22H17CoN4)]
 Deg. of freedom   126
 Full point group                 C1      NOp   1
 Rotational constants (GHZ):           0.4685894           0.1011948           0.0833107
 General basis read from cards:  (5D, 7F)
 ======================================================================================================
                                       Pseudopotential Parameters
 ======================================================================================================
  Center     Atomic      Valence      Angular      Power
  Number     Number     Electrons     Momentum     of R      Exponent        Coefficient   SO-Coeffient
 ======================================================================================================
    1          6
                                   No pseudopotential on this center.
    2          6
                                   No pseudopotential on this center.
    3          6
                                   No pseudopotential on this center.
    4          6
                                   No pseudopotential on this center.
    5          6
                                   No pseudopotential on this center.
    6          6
                                   No pseudopotential on this center.
    7          1
                                   No pseudopotential on this center.
    8          1
                                   No pseudopotential on this center.
    9          1
                                   No pseudopotential on this center.
   10          6
                                   No pseudopotential on this center.
   11          6
                                   No pseudopotential on this center.
   12          6
                                   No pseudopotential on this center.
   13          6
                                   No pseudopotential on this center.
   14          6
                                   No pseudopotential on this center.
   15          6
                                   No pseudopotential on this center.
   16          1
                                   No pseudopotential on this center.
   17          6
                                   No pseudopotential on this center.
   18          1
                                   No pseudopotential on this center.
   19          1
                                   No pseudopotential on this center.
   20          1
                                   No pseudopotential on this center.
   21          6
                                   No pseudopotential on this center.
   22          6
                                   No pseudopotential on this center.
   23          6
                                   No pseudopotential on this center.
   24          6
                                   No pseudopotential on this center.
   25          6
                                   No pseudopotential on this center.
   26          6
                                   No pseudopotential on this center.
   27          1
                                   No pseudopotential on this center.
   28          6
                                   No pseudopotential on this center.
   29          1
                                   No pseudopotential on this center.
   30          1
                                   No pseudopotential on this center.
   31          1
                                   No pseudopotential on this center.
   32          7
                                   No pseudopotential on this center.
   33          7
                                   No pseudopotential on this center.
   34          7
                                   No pseudopotential on this center.
   35          7
                                   No pseudopotential on this center.
   36          6
                                   No pseudopotential on this center.
   37          1
                                   No pseudopotential on this center.
   38          1
                                   No pseudopotential on this center.
   39          1
                                   No pseudopotential on this center.
   40          6
                                   No pseudopotential on this center.
   41          1
                                   No pseudopotential on this center.
   42          1
                                   No pseudopotential on this center.
   43          1
                                   No pseudopotential on this center.
   44         27           17
                                      F and up 
                                                     2        1.0000000        0.00000000    0.00000000
                                      S - F
                                                     2       23.6600000      283.96056600    0.00000000
                                                     2       10.6100000       47.15684600    0.00000000
                                      P - F
                                                     2       25.0400000      182.21223600    0.00000000
                                                     2       10.4400000       35.23335200    0.00000000
                                      D - F
                                                     2       29.5400000      -26.47533300    0.00000000
                                                     2       10.1800000       -1.82578700    0.00000000
 ======================================================================================================
   441 basis functions,   871 primitive gaussians,   473 cartesian basis functions
    97 alpha electrons       97 beta electrons
       nuclear repulsion energy      2494.9855608632 Hartrees.
 NAtoms=   44 NActive=   44 NUniq=   44 SFac= 1.00D+00 NAtFMM=   60 NAOKFM=F Big=F
 Integral buffers will be    131072 words long.
 Raffenetti 2 integral format.
 Two-electron integral symmetry is turned off.
 Nuclear repulsion after empirical dispersion term =     2494.9262991479 Hartrees.
 One-electron integrals computed using PRISM.
   1 Symmetry operations used in ECPInt.
 ECPInt:  NShTT=   11781 NPrTT=   71406 LenC2=    9540 LenP2D=   32106.
 LDataN:  DoStor=T MaxTD1= 6 Len=  172
 NBasis=   441 RedAO= T EigKep=  3.35D-04  NBF=   441
 NBsUse=   441 1.00D-06 EigRej= -1.00D+00 NBFU=   441
 Initial guess from the checkpoint file:  "a.chk"
 B after Tr=     0.000000   -0.001372    0.000002
         Rot=    1.000000    0.000001    0.000000   -0.000000 Ang=   0.00 deg.
 Initial guess <Sx>= 0.0000 <Sy>= 0.0000 <Sz>= 0.0000 <S**2>= 0.0000 S= 0.0000
 Requested convergence on RMS density matrix=1.00D-08 within  64 cycles.
 Requested convergence on MAX density matrix=1.00D-06.
 Requested convergence on             energy=1.00D-06.
 No special actions if energy rises.
 EnCoef did     3 forward-backward iterations
 SCF Done:  E(UPBE1PBE) =  -1212.13175479     A.U. after   17 cycles
            NFock= 17  Conv=0.30D-08     -V/T= 2.0552
 <Sx>= 0.0000 <Sy>= 0.0000 <Sz>= 0.0000 <S**2>= 0.0000 S= 0.0000
 <L.S>=  0.00000000000    
 Annihilation of the first spin contaminant:
 S**2 before annihilation     0.0000,   after     0.0000
 QCSCF skips out because SCF is already converged.

 **********************************************************************

            Population analysis using the SCF Density.

 **********************************************************************

 Alpha  occ. eigenvalues --  -14.45722 -14.45722 -14.44973 -14.44973 -10.28100
 Alpha  occ. eigenvalues --  -10.28100 -10.27552 -10.27551 -10.27407 -10.27407
 Alpha  occ. eigenvalues --  -10.27300 -10.27300 -10.24872 -10.24871 -10.24179
 Alpha  occ. eigenvalues --  -10.24179 -10.23906 -10.23906 -10.23455 -10.23454
 Alpha  occ. eigenvalues --  -10.23400 -10.23400 -10.21304 -10.21299 -10.21083
 Alpha  occ. eigenvalues --  -10.18981  -3.83410  -2.35162  -2.35080  -2.31387
 Alpha  occ. eigenvalues --   -1.05985  -1.05909  -0.97110  -0.96766  -0.88223
 Alpha  occ. eigenvalues --   -0.87986  -0.84754  -0.80319  -0.78718  -0.77901
 Alpha  occ. eigenvalues --   -0.77853  -0.75677  -0.75099  -0.72831  -0.71663
 Alpha  occ. eigenvalues --   -0.66597  -0.65234  -0.64572  -0.63975  -0.62698
 Alpha  occ. eigenvalues --   -0.61429  -0.58817  -0.57273  -0.56581  -0.54087
 Alpha  occ. eigenvalues --   -0.53144  -0.51825  -0.49694  -0.49631  -0.48972
 Alpha  occ. eigenvalues --   -0.47968  -0.47931  -0.47460  -0.46690  -0.46155
 Alpha  occ. eigenvalues --   -0.45789  -0.45277  -0.45017  -0.44644  -0.44099
 Alpha  occ. eigenvalues --   -0.42262  -0.41915  -0.40984  -0.38504  -0.38445
 Alpha  occ. eigenvalues --   -0.38248  -0.37500  -0.36892  -0.36775  -0.36615
 Alpha  occ. eigenvalues --   -0.35705  -0.34503  -0.34405  -0.33819  -0.31419
 Alpha  occ. eigenvalues --   -0.29090  -0.26650  -0.25935  -0.24870  -0.24491
 Alpha  occ. eigenvalues --   -0.23681  -0.21281  -0.20655  -0.20500  -0.16219
 Alpha  occ. eigenvalues --   -0.15597  -0.15165
 Alpha virt. eigenvalues --   -0.04622  -0.02430  -0.00570   0.00059   0.00829
 Alpha virt. eigenvalues --    0.01360   0.02038   0.03437   0.05351   0.05895
 Alpha virt. eigenvalues --    0.06501   0.07378   0.09296   0.09365   0.10117
 Alpha virt. eigenvalues --    0.10733   0.12646   0.13096   0.14191   0.14239
 Alpha virt. eigenvalues --    0.15358   0.15780   0.15899   0.16078   0.16551
 Alpha virt. eigenvalues --    0.16842   0.17330   0.17725   0.17950   0.18355
 Alpha virt. eigenvalues --    0.19246   0.19392   0.19793   0.20468   0.22117
 Alpha virt. eigenvalues --    0.22198   0.22787   0.22863   0.23055   0.23922
 Alpha virt. eigenvalues --    0.25983   0.26257   0.26716   0.27714   0.28116
 Alpha virt. eigenvalues --    0.28399   0.29437   0.29680   0.31159   0.31401
 Alpha virt. eigenvalues --    0.32073   0.33395   0.33963   0.34528   0.34741
 Alpha virt. eigenvalues --    0.36392   0.37751   0.38237   0.39731   0.39736
 Alpha virt. eigenvalues --    0.41455   0.43048   0.44658   0.45620   0.46854
 Alpha virt. eigenvalues --    0.47883   0.47941   0.50715   0.51521   0.51969
 Alpha virt. eigenvalues --    0.52278   0.53601   0.53820   0.56042   0.56162
 Alpha virt. eigenvalues --    0.56819   0.57007   0.57122   0.58092   0.58576
 Alpha virt. eigenvalues --    0.58759   0.59169   0.59440   0.60287   0.61541
 Alpha virt. eigenvalues --    0.61594   0.61880   0.63013   0.63055   0.63287
 Alpha virt. eigenvalues --    0.63411   0.63503   0.63510   0.64203   0.64296
 Alpha virt. eigenvalues --    0.65308   0.65758   0.66514   0.67082   0.67206
 Alpha virt. eigenvalues --    0.67741   0.68107   0.68316   0.68522   0.70991
 Alpha virt. eigenvalues --    0.72411   0.72473   0.74206   0.76171   0.76257
 Alpha virt. eigenvalues --    0.76803   0.77451   0.78472   0.80181   0.80284
 Alpha virt. eigenvalues --    0.81233   0.81938   0.82731   0.83888   0.83920
 Alpha virt. eigenvalues --    0.84004   0.84545   0.85156   0.86130   0.86952
 Alpha virt. eigenvalues --    0.87249   0.87356   0.88120   0.90108   0.90600
 Alpha virt. eigenvalues --    0.90933   0.91635   0.91661   0.92585   0.92913
 Alpha virt. eigenvalues --    0.93644   0.94033   0.95008   0.95950   0.96179
 Alpha virt. eigenvalues --    0.96238   0.97385   0.97984   0.98230   0.98300
 Alpha virt. eigenvalues --    0.98411   1.00228   1.00287   1.01951   1.02096
 Alpha virt. eigenvalues --    1.02872   1.03985   1.04238   1.06468   1.07347
 Alpha virt. eigenvalues --    1.09628   1.09806   1.10738   1.11262   1.14189
 Alpha virt. eigenvalues --    1.15078   1.15214   1.16538   1.16804   1.18389
 Alpha virt. eigenvalues --    1.18586   1.19121   1.20715   1.23822   1.24056
 Alpha virt. eigenvalues --    1.24727   1.25919   1.27146   1.27253   1.29071
 Alpha virt. eigenvalues --    1.29364   1.30019   1.30662   1.33382   1.33791
 Alpha virt. eigenvalues --    1.33872   1.36400   1.36583   1.37171   1.39252
 Alpha virt. eigenvalues --    1.40315   1.41344   1.41500   1.42667   1.43012
 Alpha virt. eigenvalues --    1.44952   1.44995   1.45380   1.46857   1.47912
 Alpha virt. eigenvalues --    1.48012   1.49214   1.49939   1.49951   1.50702
 Alpha virt. eigenvalues --    1.51742   1.51754   1.53640   1.56335   1.57887
 Alpha virt. eigenvalues --    1.58306   1.60683   1.61328   1.65900   1.65928
 Alpha virt. eigenvalues --    1.66283   1.70610   1.72496   1.73055   1.75598
 Alpha virt. eigenvalues --    1.77451   1.78950   1.80177   1.80616   1.82393
 Alpha virt. eigenvalues --    1.82623   1.86005   1.87483   1.87626   1.87674
 Alpha virt. eigenvalues --    1.88380   1.89055   1.90784   1.91369   1.92452
 Alpha virt. eigenvalues --    1.93756   1.95448   1.95523   1.96522   1.97602
 Alpha virt. eigenvalues --    1.98054   1.98282   1.98873   1.99661   1.99779
 Alpha virt. eigenvalues --    1.99788   2.00431   2.02389   2.02398   2.03430
 Alpha virt. eigenvalues --    2.06185   2.06982   2.07247   2.09489   2.11059
 Alpha virt. eigenvalues --    2.13000   2.13068   2.14324   2.15464   2.15675
 Alpha virt. eigenvalues --    2.16514   2.16800   2.17007   2.19142   2.19992
 Alpha virt. eigenvalues --    2.20631   2.21398   2.21611   2.22198   2.23968
 Alpha virt. eigenvalues --    2.24514   2.24815   2.26316   2.27173   2.27619
 Alpha virt. eigenvalues --    2.28019   2.28406   2.28407   2.28536   2.29212
 Alpha virt. eigenvalues --    2.33113   2.35729   2.38200   2.40343   2.40707
 Alpha virt. eigenvalues --    2.41023   2.43621   2.44728   2.47099   2.47931
 Alpha virt. eigenvalues --    2.51912   2.52211   2.52219   2.56917   2.58488
 Alpha virt. eigenvalues --    2.59357   2.59415   2.60295   2.60795   2.62820
 Alpha virt. eigenvalues --    2.64099   2.65062   2.66548   2.68353   2.69374
 Alpha virt. eigenvalues --    2.70495   2.70726   2.72419   2.75180   2.75829
 Alpha virt. eigenvalues --    2.76284   2.76586   2.77282   2.78872   2.80682
 Alpha virt. eigenvalues --    2.82989   2.85204   2.87520   2.88095   2.88377
 Alpha virt. eigenvalues --    2.93576   2.94609   2.97805   2.97967   2.99535
 Alpha virt. eigenvalues --    3.02201   3.06460   3.07550   3.16882   3.19842
 Alpha virt. eigenvalues --    3.20336   3.29157   3.41164   3.46481   3.47730
 Alpha virt. eigenvalues --    3.52490   3.53011   3.61957   5.66528   5.67001
 Alpha virt. eigenvalues --    5.67688   5.68650   5.68693   5.69868   5.72151
 Alpha virt. eigenvalues --   45.81767  45.99563  46.03964  63.11460
  Beta  occ. eigenvalues --  -14.45722 -14.45722 -14.44973 -14.44973 -10.28100
  Beta  occ. eigenvalues --  -10.28100 -10.27552 -10.27551 -10.27407 -10.27407
  Beta  occ. eigenvalues --  -10.27300 -10.27300 -10.24872 -10.24871 -10.24179
  Beta  occ. eigenvalues --  -10.24179 -10.23906 -10.23906 -10.23455 -10.23454
  Beta  occ. eigenvalues --  -10.23400 -10.23400 -10.21304 -10.21299 -10.21083
  Beta  occ. eigenvalues --  -10.18981  -3.83410  -2.35162  -2.35080  -2.31388
  Beta  occ. eigenvalues --   -1.05985  -1.05909  -0.97110  -0.96766  -0.88223
  Beta  occ. eigenvalues --   -0.87986  -0.84754  -0.80319  -0.78718  -0.77901
  Beta  occ. eigenvalues --   -0.77853  -0.75677  -0.75099  -0.72831  -0.71663
  Beta  occ. eigenvalues --   -0.66597  -0.65234  -0.64572  -0.63975  -0.62698
  Beta  occ. eigenvalues --   -0.61429  -0.58817  -0.57273  -0.56581  -0.54087
  Beta  occ. eigenvalues --   -0.53144  -0.51825  -0.49694  -0.49631  -0.48972
  Beta  occ. eigenvalues --   -0.47968  -0.47931  -0.47460  -0.46690  -0.46155
  Beta  occ. eigenvalues --   -0.45789  -0.45277  -0.45017  -0.44644  -0.44099
  Beta  occ. eigenvalues --   -0.42262  -0.41915  -0.40984  -0.38504  -0.38445
  Beta  occ. eigenvalues --   -0.38248  -0.37500  -0.36892  -0.36775  -0.36615
  Beta  occ. eigenvalues --   -0.35705  -0.34503  -0.34405  -0.33819  -0.31419
  Beta  occ. eigenvalues --   -0.29090  -0.26650  -0.25935  -0.24870  -0.24491
  Beta  occ. eigenvalues --   -0.23681  -0.21281  -0.20655  -0.20500  -0.16219
  Beta  occ. eigenvalues --   -0.15597  -0.15165
  Beta virt. eigenvalues --   -0.04622  -0.02430  -0.00570   0.00059   0.00829
  Beta virt. eigenvalues --    0.01360   0.02038   0.03437   0.05351   0.05895
  Beta virt. eigenvalues --    0.06501   0.07378   0.09296   0.09365   0.10117
  Beta virt. eigenvalues --    0.10733   0.12646   0.13096   0.14191   0.14239
  Beta virt. eigenvalues --    0.15358   0.15780   0.15899   0.16078   0.16551
  Beta virt. eigenvalues --    0.16842   0.17330   0.17725   0.17950   0.18355
  Beta virt. eigenvalues --    0.19246   0.19392   0.19793   0.20468   0.22117
  Beta virt. eigenvalues --    0.22198   0.22787   0.22863   0.23055   0.23922
  Beta virt. eigenvalues --    0.25983   0.26257   0.26716   0.27714   0.28116
  Beta virt. eigenvalues --    0.28399   0.29437   0.29680   0.31159   0.31401
  Beta virt. eigenvalues --    0.32073   0.33395   0.33963   0.34528   0.34741
  Beta virt. eigenvalues --    0.36392   0.37751   0.38237   0.39731   0.39736
  Beta virt. eigenvalues --    0.41455   0.43048   0.44658   0.45620   0.46854
  Beta virt. eigenvalues --    0.47883   0.47941   0.50715   0.51521   0.51969
  Beta virt. eigenvalues --    0.52278   0.53601   0.53820   0.56042   0.56162
  Beta virt. eigenvalues --    0.56819   0.57007   0.57122   0.58092   0.58576
  Beta virt. eigenvalues --    0.58759   0.59169   0.59440   0.60287   0.61541
  Beta virt. eigenvalues --    0.61594   0.61880   0.63013   0.63055   0.63287
  Beta virt. eigenvalues --    0.63411   0.63503   0.63510   0.64203   0.64296
  Beta virt. eigenvalues --    0.65308   0.65758   0.66514   0.67082   0.67206
  Beta virt. eigenvalues --    0.67741   0.68107   0.68316   0.68522   0.70991
  Beta virt. eigenvalues --    0.72411   0.72473   0.74206   0.76171   0.76257
  Beta virt. eigenvalues --    0.76803   0.77451   0.78472   0.80181   0.80284
  Beta virt. eigenvalues --    0.81233   0.81938   0.82731   0.83888   0.83920
  Beta virt. eigenvalues --    0.84004   0.84545   0.85156   0.86130   0.86952
  Beta virt. eigenvalues --    0.87249   0.87356   0.88120   0.90108   0.90600
  Beta virt. eigenvalues --    0.90933   0.91635   0.91661   0.92585   0.92913
  Beta virt. eigenvalues --    0.93644   0.94033   0.95008   0.95950   0.96179
  Beta virt. eigenvalues --    0.96238   0.97385   0.97984   0.98230   0.98300
  Beta virt. eigenvalues --    0.98411   1.00228   1.00287   1.01951   1.02096
  Beta virt. eigenvalues --    1.02872   1.03985   1.04238   1.06468   1.07347
  Beta virt. eigenvalues --    1.09628   1.09806   1.10738   1.11262   1.14189
  Beta virt. eigenvalues --    1.15078   1.15214   1.16538   1.16804   1.18389
  Beta virt. eigenvalues --    1.18586   1.19121   1.20715   1.23822   1.24056
  Beta virt. eigenvalues --    1.24727   1.25919   1.27146   1.27253   1.29071
  Beta virt. eigenvalues --    1.29364   1.30019   1.30662   1.33382   1.33791
  Beta virt. eigenvalues --    1.33872   1.36400   1.36583   1.37171   1.39252
  Beta virt. eigenvalues --    1.40315   1.41344   1.41500   1.42667   1.43012
  Beta virt. eigenvalues --    1.44952   1.44995   1.45380   1.46857   1.47912
  Beta virt. eigenvalues --    1.48012   1.49214   1.49939   1.49951   1.50702
  Beta virt. eigenvalues --    1.51742   1.51754   1.53640   1.56335   1.57887
  Beta virt. eigenvalues --    1.58306   1.60683   1.61328   1.65900   1.65928
  Beta virt. eigenvalues --    1.66283   1.70610   1.72496   1.73055   1.75598
  Beta virt. eigenvalues --    1.77451   1.78950   1.80177   1.80616   1.82393
  Beta virt. eigenvalues --    1.82623   1.86005   1.87483   1.87626   1.87674
  Beta virt. eigenvalues --    1.88380   1.89055   1.90784   1.91369   1.92452
  Beta virt. eigenvalues --    1.93756   1.95448   1.95523   1.96522   1.97602
  Beta virt. eigenvalues --    1.98054   1.98282   1.98873   1.99661   1.99779
  Beta virt. eigenvalues --    1.99788   2.00431   2.02389   2.02398   2.03430
  Beta virt. eigenvalues --    2.06185   2.06982   2.07247   2.09489   2.11059
  Beta virt. eigenvalues --    2.13000   2.13068   2.14324   2.15464   2.15675
  Beta virt. eigenvalues --    2.16514   2.16800   2.17007   2.19142   2.19992
  Beta virt. eigenvalues --    2.20631   2.21398   2.21611   2.22198   2.23968
  Beta virt. eigenvalues --    2.24514   2.24815   2.26316   2.27173   2.27619
  Beta virt. eigenvalues --    2.28019   2.28406   2.28407   2.28536   2.29212
  Beta virt. eigenvalues --    2.33113   2.35729   2.38200   2.40343   2.40707
  Beta virt. eigenvalues --    2.41023   2.43621   2.44728   2.47099   2.47931
  Beta virt. eigenvalues --    2.51912   2.52211   2.52219   2.56917   2.58488
  Beta virt. eigenvalues --    2.59357   2.59415   2.60295   2.60795   2.62820
  Beta virt. eigenvalues --    2.64099   2.65062   2.66548   2.68353   2.69374
  Beta virt. eigenvalues --    2.70495   2.70726   2.72419   2.75180   2.75829
  Beta virt. eigenvalues --    2.76284   2.76586   2.77282   2.78872   2.80682
  Beta virt. eigenvalues --    2.82989   2.85204   2.87520   2.88095   2.88377
  Beta virt. eigenvalues --    2.93576   2.94609   2.97805   2.97967   2.99535
  Beta virt. eigenvalues --    3.02201   3.06460   3.07550   3.16882   3.19842
  Beta virt. eigenvalues --    3.20336   3.29157   3.41164   3.46481   3.47730
  Beta virt. eigenvalues --    3.52490   3.53011   3.61957   5.66528   5.67001
  Beta virt. eigenvalues --    5.67688   5.68650   5.68693   5.69868   5.72151
  Beta virt. eigenvalues --   45.81767  45.99563  46.03964  63.11460
          Condensed to atoms (all electrons):
               1          2          3          4          5          6
     1  C    5.138482   0.513734  -0.068385  -0.053302  -0.068386   0.513733
     2  C    0.513734   4.646350   0.529040  -0.011305  -0.038851  -0.017147
     3  C   -0.068385   0.529040   5.039855   0.531831  -0.036618  -0.038851
     4  C   -0.053302  -0.011305   0.531831   4.913328   0.531831  -0.011305
     5  C   -0.068386  -0.038851  -0.036618   0.531831   5.039854   0.529040
     6  C    0.513733  -0.017147  -0.038851  -0.011305   0.529040   4.646350
     7  H    0.005437  -0.039921   0.344395  -0.039129   0.003891   0.000689
     8  H    0.001538   0.002570  -0.036266   0.364087  -0.036266   0.002570
     9  H    0.005437   0.000689   0.003891  -0.039129   0.344395  -0.039921
    10  C    0.006849  -0.000027   0.000002   0.000142  -0.005996  -0.048408
    11  C    0.007716   0.002655  -0.000065   0.000028   0.003374  -0.068820
    12  C   -0.000750   0.000001  -0.000000   0.000000   0.000135   0.007613
    13  C    0.000145   0.000001  -0.000001   0.000052   0.002248  -0.003969
    14  C    0.000001  -0.000000   0.000000  -0.000000   0.000003  -0.000021
    15  C    0.000002  -0.000000   0.000000  -0.000001   0.000084   0.000067
    16  H   -0.000032   0.000001   0.000001   0.000104   0.000246   0.000654
    17  C    0.000000   0.000000   0.000000   0.000000  -0.000001  -0.000005
    18  H   -0.000000   0.000000   0.000000   0.000000  -0.000000   0.000003
    19  H   -0.000000   0.000000  -0.000000   0.000000   0.000002  -0.000003
    20  H    0.000000  -0.000000   0.000000  -0.000000  -0.000000  -0.000000
    21  C    0.006849  -0.048408  -0.005996   0.000142   0.000002  -0.000027
    22  C    0.007715  -0.068820   0.003374   0.000028  -0.000065   0.002655
    23  C   -0.000750   0.007613   0.000135   0.000000  -0.000000   0.000001
    24  C    0.000145  -0.003969   0.002248   0.000052  -0.000001   0.000001
    25  C    0.000001  -0.000021   0.000003  -0.000000   0.000000  -0.000000
    26  C    0.000002   0.000067   0.000084  -0.000001   0.000000  -0.000000
    27  H   -0.000032   0.000654   0.000246   0.000104   0.000001   0.000001
    28  C    0.000000  -0.000005  -0.000001   0.000000   0.000000   0.000000
    29  H   -0.000000   0.000003  -0.000000   0.000000   0.000000   0.000000
    30  H   -0.000000  -0.000003   0.000002   0.000000  -0.000000   0.000000
    31  H    0.000000  -0.000000  -0.000000  -0.000000   0.000000  -0.000000
    32  N   -0.036227   0.249015  -0.074846   0.004636   0.000361   0.006208
    33  N    0.002025   0.006294  -0.000164   0.000002   0.000000  -0.000041
    34  N   -0.036228   0.006208   0.000361   0.004636  -0.074846   0.249016
    35  N    0.002025  -0.000041   0.000000   0.000002  -0.000164   0.006294
    36  C   -0.000015   0.000000   0.000000  -0.000000   0.000002  -0.000043
    37  H   -0.000001  -0.000000   0.000000   0.000000  -0.000000   0.000004
    38  H   -0.000001  -0.000000   0.000000   0.000000  -0.000000   0.000004
    39  H   -0.000016   0.000001   0.000000  -0.000000   0.000000  -0.000008
    40  C   -0.000015  -0.000043   0.000002  -0.000000   0.000000   0.000000
    41  H   -0.000001   0.000004  -0.000000   0.000000   0.000000  -0.000000
    42  H   -0.000001   0.000004  -0.000000   0.000000   0.000000  -0.000000
    43  H   -0.000016  -0.000008   0.000000  -0.000000   0.000000   0.000001
    44  Co   0.253017  -0.066152   0.006250   0.001439   0.006250  -0.066152
               7          8          9         10         11         12
     1  C    0.005437   0.001538   0.005437   0.006849   0.007716  -0.000750
     2  C   -0.039921   0.002570   0.000689  -0.000027   0.002655   0.000001
     3  C    0.344395  -0.036266   0.003891   0.000002  -0.000065  -0.000000
     4  C   -0.039129   0.364087  -0.039129   0.000142   0.000028   0.000000
     5  C    0.003891  -0.036266   0.344395  -0.005996   0.003374   0.000135
     6  C    0.000689   0.002570  -0.039921  -0.048408  -0.068820   0.007613
     7  H    0.567168  -0.004229  -0.000095  -0.000000  -0.000000   0.000000
     8  H   -0.004229   0.556729  -0.004229  -0.000003   0.000001  -0.000000
     9  H   -0.000095  -0.004229   0.567168   0.000361  -0.000182  -0.000041
    10  C   -0.000000  -0.000003   0.000361   4.642986  -0.067278   0.513708
    11  C   -0.000000   0.000001  -0.000182  -0.067278   4.807565  -0.053952
    12  C    0.000000  -0.000000  -0.000041   0.513708  -0.053952   4.665123
    13  C   -0.000000   0.000003  -0.000303   0.536904   0.004400  -0.057136
    14  C   -0.000000   0.000000  -0.000000  -0.049199   0.004955   0.533497
    15  C   -0.000000   0.000000   0.000136  -0.006303  -0.000054  -0.037923
    16  H    0.000000  -0.000011   0.006423  -0.033179  -0.000151   0.003751
    17  C    0.000000  -0.000000   0.000001  -0.039190  -0.000059  -0.008966
    18  H    0.000000  -0.000000  -0.000000   0.003879  -0.000208  -0.037704
    19  H    0.000000   0.000000  -0.000009   0.001922   0.000003   0.000929
    20  H   -0.000000  -0.000000   0.000000   0.000899   0.000003   0.002296
    21  C    0.000361  -0.000003  -0.000000  -0.000000  -0.000008   0.000000
    22  C   -0.000182   0.000001  -0.000000  -0.000008  -0.015700  -0.000002
    23  C   -0.000041  -0.000000   0.000000   0.000000  -0.000002  -0.000000
    24  C   -0.000303   0.000003  -0.000000   0.000000   0.000000  -0.000000
    25  C   -0.000000   0.000000  -0.000000  -0.000000   0.000000   0.000000
    26  C    0.000136   0.000000  -0.000000  -0.000000  -0.000000   0.000000
    27  H    0.006423  -0.000011   0.000000   0.000000   0.000000  -0.000000
    28  C    0.000001  -0.000000   0.000000   0.000000  -0.000000  -0.000000
    29  H   -0.000000  -0.000000   0.000000   0.000000   0.000000  -0.000000
    30  H   -0.000009   0.000000   0.000000   0.000000   0.000000   0.000000
    31  H    0.000000  -0.000000  -0.000000   0.000000   0.000000   0.000000
    32  N   -0.003884  -0.000112   0.000008   0.000000   0.000345   0.000000
    33  N    0.000000  -0.000000  -0.000000  -0.000000   0.000035   0.000000
    34  N    0.000008  -0.000112  -0.003884   0.259091   0.353707  -0.040813
    35  N   -0.000000  -0.000000   0.000000  -0.045536   0.305181   0.263366
    36  C   -0.000000   0.000000  -0.000000   0.005581  -0.043968  -0.048855
    37  H    0.000000  -0.000000   0.000000  -0.000140   0.000530  -0.001220
    38  H    0.000000  -0.000000   0.000000  -0.000140   0.000525  -0.001217
    39  H    0.000000   0.000000   0.000000   0.000015   0.000655   0.002643
    40  C   -0.000000   0.000000  -0.000000   0.000000   0.000016   0.000000
    41  H    0.000000  -0.000000   0.000000  -0.000000  -0.000000  -0.000000
    42  H    0.000000  -0.000000   0.000000  -0.000000  -0.000000  -0.000000
    43  H    0.000000   0.000000   0.000000   0.000000  -0.000003  -0.000000
    44  Co  -0.000413   0.000141  -0.000413   0.007101   0.356125   0.005740
              13         14         15         16         17         18
     1  C    0.000145   0.000001   0.000002  -0.000032   0.000000  -0.000000
     2  C    0.000001  -0.000000  -0.000000   0.000001   0.000000   0.000000
     3  C   -0.000001   0.000000   0.000000   0.000001   0.000000   0.000000
     4  C    0.000052  -0.000000  -0.000001   0.000104   0.000000   0.000000
     5  C    0.002248   0.000003   0.000084   0.000246  -0.000001  -0.000000
     6  C   -0.003969  -0.000021   0.000067   0.000654  -0.000005   0.000003
     7  H   -0.000000  -0.000000  -0.000000   0.000000   0.000000   0.000000
     8  H    0.000003   0.000000   0.000000  -0.000011  -0.000000  -0.000000
     9  H   -0.000303  -0.000000   0.000136   0.006423   0.000001  -0.000000
    10  C    0.536904  -0.049199  -0.006303  -0.033179  -0.039190   0.003879
    11  C    0.004400   0.004955  -0.000054  -0.000151  -0.000059  -0.000208
    12  C   -0.057136   0.533497  -0.037923   0.003751  -0.008966  -0.037704
    13  C    5.023770  -0.044955   0.510743   0.355369  -0.036012   0.000270
    14  C   -0.044955   5.028730  -0.037153   0.000439   0.517204   0.362324
    15  C    0.510743  -0.037153   4.896579  -0.035685   0.555208   0.003828
    16  H    0.355369   0.000439  -0.035685   0.510566   0.003656   0.000013
    17  C   -0.036012   0.517204   0.555208   0.003656   4.890322  -0.035261
    18  H    0.000270   0.362324   0.003828   0.000013  -0.035261   0.532266
    19  H   -0.035529   0.003944   0.369017  -0.003927  -0.036006  -0.000143
    20  H    0.004002  -0.036800  -0.036313  -0.000146   0.368613  -0.004140
    21  C    0.000000  -0.000000  -0.000000   0.000000   0.000000   0.000000
    22  C    0.000000   0.000000  -0.000000   0.000000  -0.000000   0.000000
    23  C   -0.000000   0.000000   0.000000  -0.000000  -0.000000  -0.000000
    24  C    0.000000  -0.000000   0.000000   0.000000   0.000000   0.000000
    25  C   -0.000000  -0.000000   0.000000  -0.000000  -0.000000   0.000000
    26  C    0.000000   0.000000  -0.000000  -0.000000  -0.000000   0.000000
    27  H    0.000000  -0.000000  -0.000000   0.000000   0.000000  -0.000000
    28  C    0.000000  -0.000000  -0.000000   0.000000   0.000000   0.000000
    29  H    0.000000   0.000000   0.000000  -0.000000   0.000000  -0.000000
    30  H   -0.000000  -0.000000   0.000000  -0.000000   0.000000   0.000000
    31  H   -0.000000   0.000000   0.000000  -0.000000   0.000000   0.000000
    32  N   -0.000000   0.000000   0.000000   0.000000   0.000000  -0.000000
    33  N    0.000000  -0.000000  -0.000000   0.000000   0.000000  -0.000000
    34  N   -0.077230   0.009381   0.005103  -0.004970  -0.000203  -0.000093
    35  N    0.009663  -0.082147  -0.000181  -0.000097   0.005313  -0.007198
    36  C   -0.000117  -0.002700   0.000009   0.000003  -0.000113   0.004237
    37  H   -0.000010   0.002600  -0.000001  -0.000000  -0.000003   0.000540
    38  H   -0.000010   0.002598  -0.000001  -0.000000  -0.000003   0.000539
    39  H    0.000006   0.000019  -0.000000  -0.000000   0.000001  -0.000035
    40  C    0.000000   0.000000  -0.000000   0.000000   0.000000  -0.000000
    41  H   -0.000000  -0.000000   0.000000   0.000000   0.000000  -0.000000
    42  H   -0.000000  -0.000000   0.000000   0.000000   0.000000  -0.000000
    43  H    0.000000   0.000000  -0.000000   0.000000  -0.000000   0.000000
    44  Co  -0.001302  -0.001368   0.000178   0.000039   0.000150   0.000017
              19         20         21         22         23         24
     1  C   -0.000000   0.000000   0.006849   0.007715  -0.000750   0.000145
     2  C    0.000000  -0.000000  -0.048408  -0.068820   0.007613  -0.003969
     3  C   -0.000000   0.000000  -0.005996   0.003374   0.000135   0.002248
     4  C    0.000000  -0.000000   0.000142   0.000028   0.000000   0.000052
     5  C    0.000002  -0.000000   0.000002  -0.000065  -0.000000  -0.000001
     6  C   -0.000003  -0.000000  -0.000027   0.002655   0.000001   0.000001
     7  H    0.000000  -0.000000   0.000361  -0.000182  -0.000041  -0.000303
     8  H    0.000000  -0.000000  -0.000003   0.000001  -0.000000   0.000003
     9  H   -0.000009   0.000000  -0.000000  -0.000000   0.000000  -0.000000
    10  C    0.001922   0.000899  -0.000000  -0.000008   0.000000   0.000000
    11  C    0.000003   0.000003  -0.000008  -0.015700  -0.000002   0.000000
    12  C    0.000929   0.002296   0.000000  -0.000002  -0.000000  -0.000000
    13  C   -0.035529   0.004002   0.000000   0.000000  -0.000000   0.000000
    14  C    0.003944  -0.036800  -0.000000   0.000000   0.000000  -0.000000
    15  C    0.369017  -0.036313  -0.000000  -0.000000   0.000000   0.000000
    16  H   -0.003927  -0.000146   0.000000   0.000000  -0.000000   0.000000
    17  C   -0.036006   0.368613   0.000000  -0.000000  -0.000000   0.000000
    18  H   -0.000143  -0.004140   0.000000   0.000000  -0.000000   0.000000
    19  H    0.530540  -0.004581   0.000000   0.000000   0.000000  -0.000000
    20  H   -0.004581   0.535114   0.000000   0.000000   0.000000  -0.000000
    21  C    0.000000   0.000000   4.642983  -0.067278   0.513708   0.536904
    22  C    0.000000   0.000000  -0.067278   4.807564  -0.053952   0.004400
    23  C    0.000000   0.000000   0.513708  -0.053952   4.665128  -0.057136
    24  C   -0.000000  -0.000000   0.536904   0.004400  -0.057136   5.023773
    25  C   -0.000000   0.000000  -0.049199   0.004955   0.533496  -0.044955
    26  C    0.000000   0.000000  -0.006303  -0.000054  -0.037923   0.510742
    27  H   -0.000000  -0.000000  -0.033179  -0.000151   0.003751   0.355369
    28  C    0.000000   0.000000  -0.039190  -0.000059  -0.008966  -0.036012
    29  H    0.000000   0.000000   0.003879  -0.000208  -0.037704   0.000270
    30  H    0.000000   0.000000   0.001922   0.000003   0.000929  -0.035529
    31  H    0.000000   0.000000   0.000899   0.000003   0.002296   0.004002
    32  N   -0.000000   0.000000   0.259090   0.353708  -0.040813  -0.077231
    33  N   -0.000000  -0.000000  -0.045536   0.305181   0.263366   0.009664
    34  N   -0.000090   0.000003   0.000000   0.000345   0.000000  -0.000000
    35  N    0.000004  -0.000099  -0.000000   0.000035   0.000000   0.000000
    36  C   -0.000000  -0.000002   0.000000   0.000016   0.000000   0.000000
    37  H   -0.000000  -0.000000  -0.000000  -0.000000  -0.000000  -0.000000
    38  H   -0.000000  -0.000000  -0.000000  -0.000000  -0.000000  -0.000000
    39  H   -0.000000  -0.000000   0.000000  -0.000003  -0.000000   0.000000
    40  C    0.000000  -0.000000   0.005581  -0.043968  -0.048855  -0.000117
    41  H   -0.000000   0.000000  -0.000140   0.000524  -0.001216  -0.000010
    42  H   -0.000000   0.000000  -0.000140   0.000530  -0.001221  -0.000010
    43  H   -0.000000   0.000000   0.000015   0.000655   0.002643   0.000006
    44  Co   0.000015  -0.000011   0.007101   0.356125   0.005740  -0.001302
              25         26         27         28         29         30
     1  C    0.000001   0.000002  -0.000032   0.000000  -0.000000  -0.000000
     2  C   -0.000021   0.000067   0.000654  -0.000005   0.000003  -0.000003
     3  C    0.000003   0.000084   0.000246  -0.000001  -0.000000   0.000002
     4  C   -0.000000  -0.000001   0.000104   0.000000   0.000000   0.000000
     5  C    0.000000   0.000000   0.000001   0.000000   0.000000  -0.000000
     6  C   -0.000000  -0.000000   0.000001   0.000000   0.000000   0.000000
     7  H   -0.000000   0.000136   0.006423   0.000001  -0.000000  -0.000009
     8  H    0.000000   0.000000  -0.000011  -0.000000  -0.000000   0.000000
     9  H   -0.000000  -0.000000   0.000000   0.000000   0.000000   0.000000
    10  C   -0.000000  -0.000000   0.000000   0.000000   0.000000   0.000000
    11  C    0.000000  -0.000000   0.000000  -0.000000   0.000000   0.000000
    12  C    0.000000   0.000000  -0.000000  -0.000000  -0.000000   0.000000
    13  C   -0.000000   0.000000   0.000000   0.000000   0.000000  -0.000000
    14  C   -0.000000   0.000000  -0.000000  -0.000000   0.000000  -0.000000
    15  C    0.000000  -0.000000  -0.000000  -0.000000   0.000000   0.000000
    16  H   -0.000000  -0.000000   0.000000   0.000000  -0.000000  -0.000000
    17  C   -0.000000  -0.000000   0.000000   0.000000   0.000000   0.000000
    18  H    0.000000   0.000000  -0.000000   0.000000  -0.000000   0.000000
    19  H   -0.000000   0.000000  -0.000000   0.000000   0.000000   0.000000
    20  H    0.000000   0.000000  -0.000000   0.000000   0.000000   0.000000
    21  C   -0.049199  -0.006303  -0.033179  -0.039190   0.003879   0.001922
    22  C    0.004955  -0.000054  -0.000151  -0.000059  -0.000208   0.000003
    23  C    0.533496  -0.037923   0.003751  -0.008966  -0.037704   0.000929
    24  C   -0.044955   0.510742   0.355369  -0.036012   0.000270  -0.035529
    25  C    5.028727  -0.037153   0.000439   0.517205   0.362324   0.003944
    26  C   -0.037153   4.896579  -0.035685   0.555207   0.003828   0.369018
    27  H    0.000439  -0.035685   0.510566   0.003656   0.000013  -0.003927
    28  C    0.517205   0.555207   0.003656   4.890321  -0.035261  -0.036005
    29  H    0.362324   0.003828   0.000013  -0.035261   0.532265  -0.000143
    30  H    0.003944   0.369018  -0.003927  -0.036005  -0.000143   0.530538
    31  H   -0.036800  -0.036313  -0.000146   0.368613  -0.004140  -0.004581
    32  N    0.009381   0.005103  -0.004970  -0.000203  -0.000093  -0.000090
    33  N   -0.082146  -0.000181  -0.000097   0.005313  -0.007198   0.000004
    34  N    0.000000   0.000000   0.000000   0.000000  -0.000000  -0.000000
    35  N   -0.000000  -0.000000   0.000000   0.000000  -0.000000  -0.000000
    36  C    0.000000  -0.000000   0.000000   0.000000  -0.000000   0.000000
    37  H   -0.000000   0.000000   0.000000   0.000000  -0.000000  -0.000000
    38  H   -0.000000   0.000000   0.000000   0.000000  -0.000000  -0.000000
    39  H    0.000000  -0.000000   0.000000  -0.000000   0.000000  -0.000000
    40  C   -0.002700   0.000009   0.000003  -0.000113   0.004237  -0.000000
    41  H    0.002598  -0.000001  -0.000000  -0.000003   0.000538  -0.000000
    42  H    0.002600  -0.000001  -0.000000  -0.000003   0.000540  -0.000000
    43  H    0.000019  -0.000000  -0.000000   0.000001  -0.000035  -0.000000
    44  Co  -0.001368   0.000178   0.000039   0.000150   0.000017   0.000015
              31         32         33         34         35         36
     1  C    0.000000  -0.036227   0.002025  -0.036228   0.002025  -0.000015
     2  C   -0.000000   0.249015   0.006294   0.006208  -0.000041   0.000000
     3  C   -0.000000  -0.074846  -0.000164   0.000361   0.000000   0.000000
     4  C   -0.000000   0.004636   0.000002   0.004636   0.000002  -0.000000
     5  C    0.000000   0.000361   0.000000  -0.074846  -0.000164   0.000002
     6  C   -0.000000   0.006208  -0.000041   0.249016   0.006294  -0.000043
     7  H    0.000000  -0.003884   0.000000   0.000008  -0.000000  -0.000000
     8  H   -0.000000  -0.000112  -0.000000  -0.000112  -0.000000   0.000000
     9  H   -0.000000   0.000008  -0.000000  -0.003884   0.000000  -0.000000
    10  C    0.000000   0.000000  -0.000000   0.259091  -0.045536   0.005581
    11  C    0.000000   0.000345   0.000035   0.353707   0.305181  -0.043968
    12  C    0.000000   0.000000   0.000000  -0.040813   0.263366  -0.048855
    13  C   -0.000000  -0.000000   0.000000  -0.077230   0.009663  -0.000117
    14  C    0.000000   0.000000  -0.000000   0.009381  -0.082147  -0.002700
    15  C    0.000000   0.000000  -0.000000   0.005103  -0.000181   0.000009
    16  H   -0.000000   0.000000   0.000000  -0.004970  -0.000097   0.000003
    17  C    0.000000   0.000000   0.000000  -0.000203   0.005313  -0.000113
    18  H    0.000000  -0.000000  -0.000000  -0.000093  -0.007198   0.004237
    19  H    0.000000  -0.000000  -0.000000  -0.000090   0.000004  -0.000000
    20  H    0.000000   0.000000  -0.000000   0.000003  -0.000099  -0.000002
    21  C    0.000899   0.259090  -0.045536   0.000000  -0.000000   0.000000
    22  C    0.000003   0.353708   0.305181   0.000345   0.000035   0.000016
    23  C    0.002296  -0.040813   0.263366   0.000000   0.000000   0.000000
    24  C    0.004002  -0.077231   0.009664  -0.000000   0.000000   0.000000
    25  C   -0.036800   0.009381  -0.082146   0.000000  -0.000000   0.000000
    26  C   -0.036313   0.005103  -0.000181   0.000000  -0.000000  -0.000000
    27  H   -0.000146  -0.004970  -0.000097   0.000000   0.000000   0.000000
    28  C    0.368613  -0.000203   0.005313   0.000000   0.000000   0.000000
    29  H   -0.004140  -0.000093  -0.007198  -0.000000  -0.000000  -0.000000
    30  H   -0.004581  -0.000090   0.000004  -0.000000  -0.000000   0.000000
    31  H    0.535114   0.000003  -0.000099   0.000000  -0.000000  -0.000000
    32  N    0.000003   7.199859  -0.062776  -0.000113   0.000000   0.000000
    33  N   -0.000099  -0.062776   7.067387   0.000000  -0.000000  -0.000000
    34  N    0.000000  -0.000113   0.000000   7.199859  -0.062776   0.004753
    35  N   -0.000000   0.000000  -0.000000  -0.062776   7.067391   0.299150
    36  C   -0.000000   0.000000  -0.000000   0.004753   0.299150   5.059416
    37  H    0.000000   0.000000   0.000000  -0.000064  -0.041539   0.377333
    38  H    0.000000   0.000000   0.000000  -0.000064  -0.041541   0.377339
    39  H    0.000000  -0.000000   0.000001   0.000153  -0.032073   0.376454
    40  C   -0.000002   0.004753   0.299150   0.000000  -0.000000   0.000000
    41  H   -0.000000  -0.000064  -0.041542   0.000000   0.000000  -0.000000
    42  H   -0.000000  -0.000064  -0.041539   0.000000   0.000000  -0.000000
    43  H   -0.000000   0.000153  -0.032072  -0.000000   0.000001  -0.000001
    44  Co  -0.000011  -0.074228  -0.054848  -0.074228  -0.054848  -0.006510
              37         38         39         40         41         42
     1  C   -0.000001  -0.000001  -0.000016  -0.000015  -0.000001  -0.000001
     2  C   -0.000000  -0.000000   0.000001  -0.000043   0.000004   0.000004
     3  C    0.000000   0.000000   0.000000   0.000002  -0.000000  -0.000000
     4  C    0.000000   0.000000  -0.000000  -0.000000   0.000000   0.000000
     5  C   -0.000000  -0.000000   0.000000   0.000000   0.000000   0.000000
     6  C    0.000004   0.000004  -0.000008   0.000000  -0.000000  -0.000000
     7  H    0.000000   0.000000   0.000000  -0.000000   0.000000   0.000000
     8  H   -0.000000  -0.000000   0.000000   0.000000  -0.000000  -0.000000
     9  H    0.000000   0.000000   0.000000  -0.000000   0.000000   0.000000
    10  C   -0.000140  -0.000140   0.000015   0.000000  -0.000000  -0.000000
    11  C    0.000530   0.000525   0.000655   0.000016  -0.000000  -0.000000
    12  C   -0.001220  -0.001217   0.002643   0.000000  -0.000000  -0.000000
    13  C   -0.000010  -0.000010   0.000006   0.000000  -0.000000  -0.000000
    14  C    0.002600   0.002598   0.000019   0.000000  -0.000000  -0.000000
    15  C   -0.000001  -0.000001  -0.000000  -0.000000   0.000000   0.000000
    16  H   -0.000000  -0.000000  -0.000000   0.000000   0.000000   0.000000
    17  C   -0.000003  -0.000003   0.000001   0.000000   0.000000   0.000000
    18  H    0.000540   0.000539  -0.000035  -0.000000  -0.000000  -0.000000
    19  H   -0.000000  -0.000000  -0.000000   0.000000  -0.000000  -0.000000
    20  H   -0.000000  -0.000000  -0.000000  -0.000000   0.000000   0.000000
    21  C   -0.000000  -0.000000   0.000000   0.005581  -0.000140  -0.000140
    22  C   -0.000000  -0.000000  -0.000003  -0.043968   0.000524   0.000530
    23  C   -0.000000  -0.000000  -0.000000  -0.048855  -0.001216  -0.001221
    24  C   -0.000000  -0.000000   0.000000  -0.000117  -0.000010  -0.000010
    25  C   -0.000000  -0.000000   0.000000  -0.002700   0.002598   0.002600
    26  C    0.000000   0.000000  -0.000000   0.000009  -0.000001  -0.000001
    27  H    0.000000   0.000000   0.000000   0.000003  -0.000000  -0.000000
    28  C    0.000000   0.000000  -0.000000  -0.000113  -0.000003  -0.000003
    29  H   -0.000000  -0.000000   0.000000   0.004237   0.000538   0.000540
    30  H   -0.000000  -0.000000  -0.000000  -0.000000  -0.000000  -0.000000
    31  H    0.000000   0.000000   0.000000  -0.000002  -0.000000  -0.000000
    32  N    0.000000   0.000000  -0.000000   0.004753  -0.000064  -0.000064
    33  N    0.000000   0.000000   0.000001   0.299150  -0.041542  -0.041539
    34  N   -0.000064  -0.000064   0.000153   0.000000   0.000000   0.000000
    35  N   -0.041539  -0.041541  -0.032073  -0.000000   0.000000   0.000000
    36  C    0.377333   0.377339   0.376454   0.000000  -0.000000  -0.000000
    37  H    0.524588  -0.040085  -0.025097  -0.000000   0.000000  -0.000000
    38  H   -0.040085   0.524584  -0.025104  -0.000000  -0.000000   0.000000
    39  H   -0.025097  -0.025104   0.470064  -0.000001   0.000000   0.000000
    40  C   -0.000000  -0.000000  -0.000001   5.059416   0.377339   0.377333
    41  H    0.000000  -0.000000   0.000000   0.377339   0.524584  -0.040085
    42  H   -0.000000   0.000000   0.000000   0.377333  -0.040085   0.524588
    43  H    0.000000   0.000000  -0.000025   0.376454  -0.025104  -0.025097
    44  Co   0.000580   0.000583   0.008060  -0.006510   0.000583   0.000580
              43         44
     1  C   -0.000016   0.253017
     2  C   -0.000008  -0.066152
     3  C    0.000000   0.006250
     4  C   -0.000000   0.001439
     5  C    0.000000   0.006250
     6  C    0.000001  -0.066152
     7  H    0.000000  -0.000413
     8  H    0.000000   0.000141
     9  H    0.000000  -0.000413
    10  C    0.000000   0.007101
    11  C   -0.000003   0.356125
    12  C   -0.000000   0.005740
    13  C    0.000000  -0.001302
    14  C    0.000000  -0.001368
    15  C   -0.000000   0.000178
    16  H    0.000000   0.000039
    17  C   -0.000000   0.000150
    18  H    0.000000   0.000017
    19  H   -0.000000   0.000015
    20  H    0.000000  -0.000011
    21  C    0.000015   0.007101
    22  C    0.000655   0.356125
    23  C    0.002643   0.005740
    24  C    0.000006  -0.001302
    25  C    0.000019  -0.001368
    26  C   -0.000000   0.000178
    27  H   -0.000000   0.000039
    28  C    0.000001   0.000150
    29  H   -0.000035   0.000017
    30  H   -0.000000   0.000015
    31  H   -0.000000  -0.000011
    32  N    0.000153  -0.074228
    33  N   -0.032072  -0.054848
    34  N   -0.000000  -0.074228
    35  N    0.000001  -0.054848
    36  C   -0.000001  -0.006510
    37  H    0.000000   0.000580
    38  H    0.000000   0.000583
    39  H   -0.000025   0.008060
    40  C    0.376454  -0.006510
    41  H   -0.025104   0.000583
    42  H   -0.025097   0.000580
    43  H    0.470064   0.008060
    44  Co   0.008060  16.462250
          Atomic-Atomic Spin Densities.
               1          2          3          4          5          6
     1  C    0.000002  -0.000000   0.000000  -0.000000   0.000000  -0.000000
     2  C   -0.000000  -0.000000   0.000000   0.000000   0.000000  -0.000000
     3  C    0.000000   0.000000   0.000000  -0.000000   0.000000   0.000000
     4  C   -0.000000   0.000000  -0.000000   0.000000  -0.000000   0.000000
     5  C    0.000000   0.000000   0.000000  -0.000000   0.000000   0.000000
     6  C   -0.000000  -0.000000   0.000000   0.000000   0.000000  -0.000000
     7  H    0.000000  -0.000000  -0.000000  -0.000000   0.000000  -0.000000
     8  H   -0.000000  -0.000000   0.000000   0.000000   0.000000  -0.000000
     9  H    0.000000  -0.000000   0.000000  -0.000000  -0.000000  -0.000000
    10  C    0.000000  -0.000000  -0.000000   0.000000   0.000000   0.000000
    11  C   -0.000000   0.000000  -0.000000   0.000000  -0.000000  -0.000000
    12  C   -0.000000  -0.000000   0.000000   0.000000   0.000000   0.000000
    13  C    0.000000   0.000000  -0.000000   0.000000   0.000000   0.000000
    14  C    0.000000   0.000000  -0.000000   0.000000   0.000000  -0.000000
    15  C    0.000000   0.000000  -0.000000   0.000000  -0.000000  -0.000000
    16  H   -0.000000  -0.000000   0.000000  -0.000000   0.000000   0.000000
    17  C   -0.000000  -0.000000   0.000000   0.000000   0.000000   0.000000
    18  H   -0.000000   0.000000   0.000000  -0.000000  -0.000000   0.000000
    19  H   -0.000000  -0.000000   0.000000  -0.000000   0.000000   0.000000
    20  H    0.000000   0.000000  -0.000000   0.000000   0.000000   0.000000
    21  C    0.000000   0.000000   0.000000   0.000000  -0.000000  -0.000000
    22  C   -0.000000  -0.000000  -0.000000   0.000000  -0.000000   0.000000
    23  C   -0.000000   0.000000   0.000000   0.000000   0.000000  -0.000000
    24  C    0.000000   0.000000   0.000000   0.000000  -0.000000   0.000000
    25  C    0.000000  -0.000000   0.000000   0.000000  -0.000000   0.000000
    26  C    0.000000  -0.000000  -0.000000   0.000000  -0.000000   0.000000
    27  H   -0.000000   0.000000   0.000000  -0.000000   0.000000  -0.000000
    28  C   -0.000000   0.000000   0.000000   0.000000   0.000000  -0.000000
    29  H   -0.000000   0.000000  -0.000000  -0.000000   0.000000   0.000000
    30  H   -0.000000   0.000000   0.000000  -0.000000   0.000000  -0.000000
    31  H    0.000000   0.000000   0.000000   0.000000  -0.000000   0.000000
    32  N    0.000000   0.000000   0.000000  -0.000000   0.000000  -0.000000
    33  N    0.000000  -0.000000   0.000000   0.000000  -0.000000   0.000000
    34  N    0.000000  -0.000000   0.000000  -0.000000   0.000000   0.000000
    35  N    0.000000   0.000000  -0.000000   0.000000   0.000000  -0.000000
    36  C    0.000000  -0.000000  -0.000000   0.000000  -0.000000  -0.000000
    37  H   -0.000000   0.000000   0.000000  -0.000000  -0.000000  -0.000000
    38  H    0.000000  -0.000000   0.000000   0.000000   0.000000   0.000000
    39  H   -0.000000  -0.000000   0.000000  -0.000000   0.000000   0.000000
    40  C    0.000000  -0.000000  -0.000000   0.000000  -0.000000  -0.000000
    41  H    0.000000   0.000000   0.000000   0.000000   0.000000  -0.000000
    42  H   -0.000000  -0.000000  -0.000000  -0.000000   0.000000   0.000000
    43  H   -0.000000   0.000000   0.000000  -0.000000   0.000000  -0.000000
    44  Co  -0.000000   0.000000  -0.000000  -0.000000  -0.000000   0.000000
               7          8          9         10         11         12
     1  C    0.000000  -0.000000   0.000000   0.000000  -0.000000  -0.000000
     2  C   -0.000000  -0.000000  -0.000000  -0.000000   0.000000  -0.000000
     3  C   -0.000000   0.000000   0.000000  -0.000000  -0.000000   0.000000
     4  C   -0.000000   0.000000  -0.000000   0.000000   0.000000   0.000000
     5  C    0.000000   0.000000  -0.000000   0.000000  -0.000000   0.000000
     6  C   -0.000000  -0.000000  -0.000000   0.000000  -0.000000   0.000000
     7  H    0.000000  -0.000000   0.000000  -0.000000   0.000000   0.000000
     8  H   -0.000000  -0.000000  -0.000000  -0.000000   0.000000  -0.000000
     9  H    0.000000  -0.000000   0.000000  -0.000000   0.000000  -0.000000
    10  C   -0.000000  -0.000000  -0.000000  -0.000000   0.000000  -0.000000
    11  C    0.000000   0.000000   0.000000   0.000000   0.000000   0.000000
    12  C    0.000000  -0.000000  -0.000000  -0.000000   0.000000  -0.000000
    13  C   -0.000000   0.000000  -0.000000   0.000000   0.000000   0.000000
    14  C   -0.000000   0.000000  -0.000000  -0.000000  -0.000000   0.000000
    15  C    0.000000   0.000000   0.000000  -0.000000  -0.000000   0.000000
    16  H   -0.000000  -0.000000  -0.000000  -0.000000   0.000000  -0.000000
    17  C   -0.000000  -0.000000  -0.000000   0.000000   0.000000  -0.000000
    18  H    0.000000  -0.000000   0.000000   0.000000   0.000000  -0.000000
    19  H   -0.000000  -0.000000  -0.000000   0.000000   0.000000  -0.000000
    20  H   -0.000000  -0.000000  -0.000000  -0.000000  -0.000000   0.000000
    21  C   -0.000000  -0.000000  -0.000000  -0.000000   0.000000  -0.000000
    22  C    0.000000   0.000000   0.000000   0.000000   0.000000   0.000000
    23  C   -0.000000  -0.000000   0.000000  -0.000000   0.000000   0.000000
    24  C   -0.000000   0.000000  -0.000000   0.000000  -0.000000  -0.000000
    25  C   -0.000000   0.000000  -0.000000   0.000000  -0.000000  -0.000000
    26  C    0.000000   0.000000   0.000000   0.000000   0.000000  -0.000000
    27  H   -0.000000  -0.000000  -0.000000  -0.000000   0.000000   0.000000
    28  C   -0.000000  -0.000000  -0.000000  -0.000000   0.000000   0.000000
    29  H    0.000000  -0.000000   0.000000  -0.000000   0.000000   0.000000
    30  H   -0.000000  -0.000000  -0.000000  -0.000000  -0.000000   0.000000
    31  H   -0.000000  -0.000000  -0.000000   0.000000  -0.000000  -0.000000
    32  N    0.000000  -0.000000  -0.000000  -0.000000   0.000000   0.000000
    33  N   -0.000000  -0.000000  -0.000000   0.000000  -0.000000  -0.000000
    34  N   -0.000000  -0.000000   0.000000  -0.000000  -0.000000   0.000000
    35  N   -0.000000  -0.000000  -0.000000   0.000000  -0.000000  -0.000000
    36  C   -0.000000   0.000000   0.000000   0.000000  -0.000000   0.000000
    37  H    0.000000   0.000000   0.000000   0.000000   0.000000   0.000000
    38  H   -0.000000  -0.000000  -0.000000  -0.000000  -0.000000  -0.000000
    39  H    0.000000  -0.000000   0.000000  -0.000000   0.000000   0.000000
    40  C    0.000000   0.000000  -0.000000   0.000000  -0.000000  -0.000000
    41  H   -0.000000  -0.000000  -0.000000  -0.000000  -0.000000  -0.000000
    42  H    0.000000   0.000000   0.000000  -0.000000   0.000000   0.000000
    43  H    0.000000  -0.000000   0.000000  -0.000000   0.000000   0.000000
    44  Co   0.000000   0.000000   0.000000   0.000000   0.000000   0.000000
              13         14         15         16         17         18
     1  C    0.000000   0.000000   0.000000  -0.000000  -0.000000  -0.000000
     2  C    0.000000   0.000000   0.000000  -0.000000  -0.000000   0.000000
     3  C   -0.000000  -0.000000  -0.000000   0.000000   0.000000   0.000000
     4  C    0.000000   0.000000   0.000000  -0.000000   0.000000  -0.000000
     5  C    0.000000   0.000000  -0.000000   0.000000   0.000000  -0.000000
     6  C    0.000000  -0.000000  -0.000000   0.000000   0.000000   0.000000
     7  H   -0.000000  -0.000000   0.000000  -0.000000  -0.000000   0.000000
     8  H    0.000000   0.000000   0.000000  -0.000000  -0.000000  -0.000000
     9  H   -0.000000  -0.000000   0.000000  -0.000000  -0.000000   0.000000
    10  C    0.000000  -0.000000  -0.000000  -0.000000   0.000000   0.000000
    11  C    0.000000  -0.000000  -0.000000   0.000000   0.000000   0.000000
    12  C    0.000000   0.000000   0.000000  -0.000000  -0.000000  -0.000000
    13  C    0.000000   0.000000  -0.000000   0.000000  -0.000000  -0.000000
    14  C    0.000000   0.000000  -0.000000  -0.000000  -0.000000  -0.000000
    15  C   -0.000000  -0.000000   0.000000   0.000000   0.000000   0.000000
[...]
 
              Baa    -0.0000    -0.000    -0.000    -0.000  0.2503  0.6718  0.6971
    41 H(1)   Bbb    -0.0000    -0.000    -0.000    -0.000 -0.1668  0.7392 -0.6525
              Bcc     0.0000     0.000     0.000     0.000  0.9537 -0.0471 -0.2971
 
              Baa    -0.0000    -0.000    -0.000    -0.000  0.7616  0.4601 -0.4564
    42 H(1)   Bbb     0.0000     0.000     0.000     0.000 -0.6024  0.7622 -0.2369
              Bcc     0.0000     0.000     0.000     0.000  0.2388  0.4554  0.8577
 
              Baa    -0.0000    -0.000    -0.000    -0.000  0.4495  0.7669 -0.4581
    43 H(1)   Bbb     0.0000     0.000     0.000     0.000 -0.1164  0.5588  0.8211
              Bcc     0.0000     0.000     0.000     0.000  0.8856 -0.3158  0.3405
 
              Baa    -0.0000    -0.006    -0.002    -0.002 -0.0000  0.7963  0.6049
    44 Co(59) Bbb    -0.0000    -0.001    -0.000    -0.000 -0.0000 -0.6049  0.7963
              Bcc     0.0001     0.007     0.002     0.002  1.0000  0.0000  0.0000
 

 ---------------------------------------------------------------------------------

   1 Symmetry operations used in ECPInt.
 ECPInt:  NShTT=   11781 NPrTT=   71406 LenC2=    9540 LenP2D=   32106.
 LDataN:  DoStor=T MaxTD1= 7 Len=  274
 Calling FoFJK, ICntrl=      2127 FMM=F ISym2X=0 I1Cent= 0 IOpClX= 1 NMat=1 NMatS=1 NMatT=0.
 -------------------------------------------------------------------
 Center     Atomic                   Forces (Hartrees/Bohr)
 Number     Number              X              Y              Z
 -------------------------------------------------------------------
      1        6           0.000000152   -0.055652768   -0.000009190
      2        6           0.072116247    0.031157479    0.000004924
      3        6           0.004567260    0.009116362    0.000001110
      4        6          -0.000000663    0.004720120   -0.000001867
      5        6          -0.004567036    0.009116406    0.000000543
      6        6          -0.072116572    0.031157621    0.000004354
      7        1           0.000105508    0.003710192   -0.000000742
      8        1           0.000000065   -0.000293032    0.000000099
      9        1          -0.000105122    0.003710415   -0.000000801
     10        6          -0.012394777   -0.008575894    0.000000814
     11        6           0.008430772    0.005837992   -0.000016855
     12        6           0.009426069    0.003182468   -0.000000955
     13        6           0.012859859    0.005625104   -0.000001339
     14        6           0.002373173    0.006086706   -0.000000642
     15        6          -0.012819536    0.007565397    0.000001462
     16        1           0.000578016   -0.000585045   -0.000000257
     17        6          -0.000507753   -0.012796931    0.000000072
     18        1           0.000595570    0.000486096    0.000000184
     19        1           0.000457875   -0.000137510   -0.000000192
     20        1           0.001002602   -0.000104502   -0.000000021
     21        6           0.012397000   -0.008576522   -0.000000650
     22        6          -0.008428737    0.005837975   -0.000018530
     23        6          -0.009430116    0.003180327   -0.000000355
     24        6          -0.012862912    0.005626368   -0.000000718
     25        6          -0.002368406    0.006087685   -0.000000461
     26        6           0.012823349    0.007564794    0.000000574
     27        1          -0.000577995   -0.000585410   -0.000000155
     28        6           0.000504426   -0.012796375   -0.000000090
     29        1          -0.000596102    0.000485188   -0.000000061
     30        1          -0.000458809   -0.000136695   -0.000000096
     31        1          -0.001001644   -0.000104398    0.000000067
     32        7          -0.029829180   -0.059228043    0.000006618
     33        7           0.021778925    0.019604879    0.000009658
     34        7           0.029829099   -0.059228400    0.000002945
     35        7          -0.021779761    0.019603823    0.000010366
     36        6           0.000026710   -0.010286504   -0.000000782
     37        1           0.000483828    0.001486503    0.001096770
     38        1           0.000482562    0.001488902   -0.001099020
     39        1           0.000348464    0.002486115    0.000001437
     40        6          -0.000027549   -0.010286795   -0.000000558
     41        1          -0.000482412    0.001488893   -0.001099211
     42        1          -0.000483873    0.001486635    0.001096781
     43        1          -0.000347865    0.002485936    0.000001784
     44       27          -0.000000710    0.038988443    0.000012985
 -------------------------------------------------------------------
 Cartesian Forces:  Max     0.072116572 RMS     0.015097791

 GradGradGradGradGradGradGradGradGradGradGradGradGradGradGradGradGradGrad
 Berny optimization.
 Search for a local minimum.
 Step number   1 out of a maximum of    2
 All quantities printed in internal units (Hartrees-Bohrs-Radians)
 Second derivative matrix not updated -- first step.
 ITU=  0
     Eigenvalues ---    0.00056   0.00062   0.00200   0.00247   0.00249
     Eigenvalues ---    0.00389   0.00452   0.00620   0.00653   0.00666
     Eigenvalues ---    0.00672   0.00842   0.00843   0.01330   0.01594
     Eigenvalues ---    0.01824   0.02024   0.02027   0.02544   0.02545
     Eigenvalues ---    0.03088   0.03205   0.04095   0.04198   0.04451
     Eigenvalues ---    0.04519   0.04711   0.05399   0.05543   0.06365
     Eigenvalues ---    0.06376   0.06894   0.06931   0.07023   0.07064
     Eigenvalues ---    0.07067   0.07244   0.07688   0.07747   0.09640
     Eigenvalues ---    0.10135   0.10381   0.10431   0.11735   0.11929
     Eigenvalues ---    0.11987   0.12325   0.12450   0.12831   0.13358
     Eigenvalues ---    0.13360   0.13463   0.13652   0.14853   0.15598
     Eigenvalues ---    0.15880   0.15984   0.19640   0.20268   0.20616
     Eigenvalues ---    0.21274   0.22172   0.24367   0.25520   0.28837
     Eigenvalues ---    0.29646   0.30539   0.30635   0.30968   0.31892
     Eigenvalues ---    0.32544   0.34837   0.36853   0.37739   0.38229
     Eigenvalues ---    0.38552   0.41350   0.42371   0.45525   0.47970
     Eigenvalues ---    0.48557   0.48815   0.49313   0.51575   0.53610
     Eigenvalues ---    0.53724   0.55020   0.57022   0.63976   0.69080
     Eigenvalues ---    0.71461   0.73266   0.74206   0.80094   0.86988
     Eigenvalues ---    0.90558   0.91618   0.91860   0.93863   0.94244
     Eigenvalues ---    0.95466   0.97189   1.01121   1.04870   1.12411
     Eigenvalues ---    1.16012   1.16464   1.18548   1.20745   1.25293
     Eigenvalues ---    1.30902   1.37768   1.37863   1.45206   1.48229
     Eigenvalues ---    1.49812   1.51434   1.53227   1.61655   1.64772
     Eigenvalues ---    1.66603   1.67473   1.77835   1.79485   1.87612
     Eigenvalues ---    1.88916
 Quadratic step=5.172D-01 exceeds max=3.000D-01 adjusted using Lamda=-1.648D-02.
 Angle between NR and scaled steps=  29.15 degrees.
 Angle between quadratic step and forces=  52.19 degrees.
 Linear search not attempted -- first point.
 B after Tr=     0.000000   -0.002220   -0.000001
         Rot=    1.000000   -0.000000   -0.000000   -0.000000 Ang=  -0.00 deg.
 Variable       Old X    -DE/DX   Delta X   Delta X   Delta X     New X
                                 (Linear)    (Quad)   (Total)
    X1        0.00000   0.00000   0.00000   0.00000   0.00000   0.00000
    Y1        1.40740  -0.05565   0.00000  -0.11138  -0.11360   1.29380
    Z1        0.00023  -0.00001   0.00000  -0.00004  -0.00004   0.00019
    X2       -2.40062   0.07212   0.00000   0.09920   0.09920  -2.30142
    Y2        2.56103   0.03116   0.00000  -0.01175  -0.01397   2.54705
    Z2        0.00007   0.00000   0.00000   0.00001   0.00001   0.00009
    X3       -2.36701   0.00457   0.00000   0.04836   0.04836  -2.31864
    Y3        5.18334   0.00912   0.00000   0.01731   0.01509   5.19843
    Z3       -0.00002   0.00000   0.00000   0.00002   0.00002   0.00000
    X4        0.00000  -0.00000   0.00000  -0.00000  -0.00000   0.00000
    Y4        6.40067   0.00472   0.00000   0.05917   0.05695   6.45761
    Z4        0.00003  -0.00000   0.00000  -0.00000   0.00000   0.00003
    X5        2.36701  -0.00457   0.00000  -0.04836  -0.04836   2.31864
    Y5        5.18334   0.00912   0.00000   0.01731   0.01509   5.19843
    Z5        0.00008   0.00000   0.00000   0.00001   0.00001   0.00009
    X6        2.40062  -0.07212   0.00000  -0.09920  -0.09920   2.30143
    Y6        2.56103   0.03116   0.00000  -0.01175  -0.01397   2.54705
    Z6        0.00014   0.00000   0.00000   0.00001   0.00001   0.00015
    X7       -4.08509   0.00011   0.00000   0.03842   0.03842  -4.04667
    Y7        6.29604   0.00371   0.00000   0.01407   0.01185   6.30789
    Z7       -0.00009  -0.00000   0.00000   0.00001   0.00001  -0.00008
    X8        0.00000   0.00000   0.00000  -0.00000  -0.00000  -0.00000
    Y8        8.45599  -0.00029   0.00000   0.05577   0.05355   8.50954
    Z8       -0.00002   0.00000   0.00000  -0.00001  -0.00001  -0.00003
    X9        4.08509  -0.00011   0.00000  -0.03842  -0.03842   4.04667
    Y9        6.29604   0.00371   0.00000   0.01407   0.01185   6.30789
    Z9        0.00009  -0.00000   0.00000  -0.00000   0.00000   0.00009
   X10        6.94390  -0.01239   0.00000  -0.03992  -0.03992   6.90398
   Y10        1.10475  -0.00858   0.00000  -0.02066  -0.02288   1.08186
   Z10       -0.00004   0.00000   0.00000   0.00000   0.00000  -0.00004
   X11        3.57892   0.00843   0.00000  -0.02713  -0.02713   3.55179
   Y11       -1.70186   0.00584   0.00000  -0.00349  -0.00571  -1.70757
   Z11        0.00021  -0.00002   0.00000  -0.00005  -0.00006   0.00016
   X12        7.87775   0.00943   0.00000  -0.01728  -0.01728   7.86047
   Y12       -1.39701   0.00318   0.00000   0.00061  -0.00161  -1.39861
   Z12       -0.00018  -0.00000   0.00000   0.00001   0.00000  -0.00017
   X13        8.56457   0.01286   0.00000  -0.02909  -0.02909   8.53547
   Y13        3.14636   0.00563   0.00000  -0.00412  -0.00634   3.14002
   Z13       -0.00010  -0.00000   0.00000  -0.00000  -0.00000  -0.00010
   X14       10.45285   0.00237   0.00000  -0.01642  -0.01642  10.43643
   Y14       -1.89204   0.00609   0.00000   0.00297   0.00075  -1.89130
   Z14       -0.00037  -0.00000   0.00000   0.00001   0.00000  -0.00037
   X15       11.17632  -0.01282   0.00000  -0.04396  -0.04396  11.13236
   Y15        2.64906   0.00757   0.00000  -0.00069  -0.00291   2.64615
   Z15       -0.00032   0.00000   0.00000   0.00001   0.00001  -0.00032
   X16        7.86994   0.00058   0.00000  -0.02069  -0.02069   7.84926
   Y16        5.07319  -0.00059   0.00000  -0.00346  -0.00568   5.06751
   Z16        0.00002  -0.00000   0.00000  -0.00001  -0.00001   0.00001
   X17       12.09186  -0.00051   0.00000  -0.02427  -0.02427  12.06759
   Y17        0.19469  -0.01280   0.00000  -0.01008  -0.01230   0.18239
   Z17       -0.00046   0.00000   0.00000   0.00001   0.00001  -0.00045
   X18       11.16509   0.00060   0.00000  -0.00652  -0.00652  11.15857
   Y18       -3.81636   0.00049   0.00000   0.00700   0.00478  -3.81158
   Z18       -0.00046   0.00000   0.00000   0.00001   0.00001  -0.00046
   X19       12.48068   0.00046   0.00000  -0.03854  -0.03854  12.44215
   Y19        4.23201  -0.00014   0.00000  -0.00281  -0.00503   4.22698
   Z19       -0.00037  -0.00000   0.00000   0.00000   0.00000  -0.00037
   X20       14.11496   0.00100   0.00000  -0.01941  -0.01941  14.09556
   Y20       -0.13410  -0.00010   0.00000  -0.00321  -0.00543  -0.13953
   Z20       -0.00062  -0.00000   0.00000   0.00001   0.00001  -0.00061
   X21       -6.94389   0.01240   0.00000   0.03992   0.03992  -6.90397
   Y21        1.10474  -0.00858   0.00000  -0.02067  -0.02289   1.08185
   Z21       -0.00007  -0.00000   0.00000   0.00001   0.00001  -0.00006
   X22       -3.57892  -0.00843   0.00000   0.02713   0.02713  -3.55179
   Y22       -1.70186   0.00584   0.00000  -0.00349  -0.00571  -1.70757
   Z22        0.00015  -0.00002   0.00000  -0.00005  -0.00005   0.00010
   X23       -7.87774  -0.00943   0.00000   0.01728   0.01728  -7.86046
   Y23       -1.39701   0.00318   0.00000   0.00061  -0.00161  -1.39862
   Z23       -0.00013  -0.00000   0.00000   0.00001   0.00001  -0.00012
   X24       -8.56456  -0.01286   0.00000   0.02909   0.02909  -8.53547
   Y24        3.14635   0.00563   0.00000  -0.00412  -0.00634   3.14001
   Z24       -0.00010  -0.00000   0.00000  -0.00000   0.00000  -0.00010
   X25      -10.45284  -0.00237   0.00000   0.01643   0.01643 -10.43642
   Y25       -1.89206   0.00609   0.00000   0.00297   0.00075  -1.89131
   Z25       -0.00019  -0.00000   0.00000   0.00000   0.00000  -0.00019
   X26      -11.17632   0.01282   0.00000   0.04396   0.04396 -11.13236
   Y26        2.64905   0.00756   0.00000  -0.00069  -0.00291   2.64613
   Z26       -0.00019   0.00000   0.00000   0.00000   0.00000  -0.00019
   X27       -7.86994  -0.00058   0.00000   0.02069   0.02069  -7.84926
   Y27        5.07318  -0.00059   0.00000  -0.00346  -0.00568   5.06750
   Z27       -0.00004  -0.00000   0.00000  -0.00001  -0.00000  -0.00005
   X28      -12.09185   0.00050   0.00000   0.02427   0.02427 -12.06759
   Y28        0.19468  -0.01280   0.00000  -0.01008  -0.01230   0.18238
   Z28       -0.00023  -0.00000   0.00000   0.00000   0.00000  -0.00023
   X29      -11.16507  -0.00060   0.00000   0.00652   0.00652 -11.15856
   Y29       -3.81637   0.00049   0.00000   0.00700   0.00478  -3.81160
   Z29       -0.00020  -0.00000   0.00000   0.00000  -0.00000  -0.00020
   X30      -12.48068  -0.00046   0.00000   0.03854   0.03854 -12.44215
   Y30        4.23200  -0.00014   0.00000  -0.00281  -0.00503   4.22696
   Z30       -0.00020  -0.00000   0.00000  -0.00000  -0.00000  -0.00021
   X31      -14.11495  -0.00100   0.00000   0.01941   0.01941 -14.09555
   Y31       -0.13412  -0.00010   0.00000  -0.00321  -0.00543  -0.13955
   Z31       -0.00029   0.00000   0.00000   0.00000   0.00000  -0.00029
   X32       -4.32620  -0.02983   0.00000   0.03223   0.03223  -4.29397
   Y32        0.88757  -0.05923   0.00000  -0.05879  -0.06101   0.82656
   Z32        0.00002   0.00001   0.00000   0.00002   0.00002   0.00004
   X33       -5.84197   0.02178   0.00000   0.04632   0.04632  -5.79565
   Y33       -3.01800   0.01960   0.00000   0.02155   0.01933  -2.99867
   Z33       -0.00008   0.00001   0.00000   0.00002   0.00001  -0.00007
   X34        4.32621   0.02983   0.00000  -0.03223  -0.03223   4.29398
   Y34        0.88757  -0.05923   0.00000  -0.05879  -0.06101   0.82656
   Z34        0.00016   0.00000   0.00000  -0.00000  -0.00000   0.00015
   X35        5.84199  -0.02178   0.00000  -0.04632  -0.04632   5.79566
   Y35       -3.01800   0.01960   0.00000   0.02155   0.01933  -2.99866
   Z35       -0.00009   0.00001   0.00000   0.00001   0.00001  -0.00008
   X36        6.01789   0.00003   0.00000  -0.02754  -0.02754   5.99034
   Y36       -5.71158  -0.01029   0.00000   0.00785   0.00563  -5.70595
   Z36        0.00001  -0.00000   0.00000   0.00001   0.00000   0.00001
   X37        7.00508   0.00048   0.00000  -0.01273  -0.01273   6.99236
   Y37       -6.40285   0.00149   0.00000   0.02639   0.02417  -6.37868
   Z37       -1.68868   0.00110   0.00000   0.00421   0.00420  -1.68448
   X38        7.00426   0.00048   0.00000  -0.01272  -0.01272   6.99154
   Y38       -6.40287   0.00149   0.00000   0.02641   0.02419  -6.37868
   Z38        1.68919  -0.00110   0.00000  -0.00420  -0.00420   1.68499
   X39        4.11272   0.00035   0.00000  -0.02582  -0.02582   4.08690
   Y39       -6.51195   0.00249   0.00000   0.01563   0.01341  -6.49854
   Z39       -0.00049   0.00000   0.00000   0.00002   0.00002  -0.00047
   X40       -6.01787  -0.00003   0.00000   0.02754   0.02754  -5.99032
   Y40       -5.71159  -0.01029   0.00000   0.00785   0.00563  -5.70596
   Z40        0.00008  -0.00000   0.00000   0.00001   0.00000   0.00009
   X41       -7.00413  -0.00048   0.00000   0.01272   0.01272  -6.99141
   Y41       -6.40285   0.00149   0.00000   0.02641   0.02418  -6.37866
   Z41        1.68934  -0.00110   0.00000  -0.00420  -0.00420   1.68514
   X42       -7.00518  -0.00048   0.00000   0.01273   0.01272  -6.99245
   Y42       -6.40289   0.00149   0.00000   0.02639   0.02417  -6.37871
   Z42       -1.68853   0.00110   0.00000   0.00421   0.00420  -1.68433
   X43       -4.11270  -0.00035   0.00000   0.02582   0.02582  -4.08688
   Y43       -6.51195   0.00249   0.00000   0.01563   0.01341  -6.49854
   Z43       -0.00054   0.00000   0.00000   0.00003   0.00002  -0.00051
   X44        0.00001  -0.00000   0.00000  -0.00000  -0.00000   0.00001
   Y44       -2.27054   0.03899   0.00000   0.05269   0.05047  -2.22006
   Z44        0.00012   0.00001   0.00000  -0.00003  -0.00003   0.00009
         Item               Value     Threshold  Converged?
 Maximum Force            0.072117     0.000450     NO 
 RMS     Force            0.015098     0.000300     NO 
 Maximum Displacement     0.113602     0.001800     NO 
 RMS     Displacement     0.026087     0.001200     NO 
 Predicted change in Energy=-1.669512D-02
 GradGradGradGradGradGradGradGradGradGradGradGradGradGradGradGradGradGrad

 Unable to Open any file for archive entry.
 1\1\GINC-X11P1N5\Force\UPBE1PBE\GenECP\C22H17Co1N4\MAYUMIAO\17-Jul-202
 4\0\\# pbe1pbe em=gd3bj genecp g09default scf=(xqc,maxcycle=64) force 
 guess=read nosymm\\Title Card\\0,1\C,0.00000183,0.74476306,0.00011995\
 C,-1.27035164,1.35523659,0.00003734\C,-1.25256543,2.74290435,-0.000007
 94\C,0.0000013,3.38708689,0.00001409\C,1.25256731,2.74290485,0.0000419
 8\C,1.27035482,1.35523742,0.00007649\H,-2.161736,3.33172044,-0.0000459
 3\H,0.0000005,4.47471753,-0.00001069\H,2.16173696,3.33172124,0.0000476
 8\C,3.67455125,0.58460646,-0.00002231\C,1.89388499,-0.90058445,0.00011
 337\C,4.16872753,-0.73926399,-0.00009385\C,4.53217301,1.66498423,-0.00
 005404\C,5.53140988,-1.00122594,-0.00019721\C,5.91425329,1.40182244,-0
 .00016997\H,4.16459473,2.68461589,0.00001113\C,6.39873843,0.10302815,-
 0.00024154\H,5.90830981,-2.01952966,-0.00024579\H,6.60449386,2.2394858
 8,-0.00019567\H,7.46931594,-0.07096428,-0.00032658\C,-3.67454896,0.584
 60249,-0.00003678\C,-1.89388121,-0.90058577,0.00008015\C,-4.16872054,-
 0.73926807,-0.00006658\C,-4.53217058,1.66497825,-0.00005256\C,-5.53140
 585,-1.001234,-0.00010136\C,-5.91425316,1.40181475,-0.0000984\H,-4.164
 59461,2.68461125,-0.00002275\C,-6.39873253,0.10301868,-0.00012211\H,-5
 .90830192,-2.01953743,-0.00010673\H,-6.60449302,2.23947628,-0.00010785
 \H,-7.46931142,-0.07097522,-0.0001521\N,-2.28932662,0.46968168,0.00001
 291\N,-3.09143831,-1.597058,-0.0000442\N,2.28933028,0.46968415,0.00008
 236\N,3.09144563,-1.59705418,-0.00004879\C,3.18452792,-3.02243992,0.00
 000618\H,3.70692961,-3.3882414,-0.89361163\H,3.70649734,-3.38825145,0.
 89388141\H,2.17635615,-3.44597481,-0.00025669\C,-3.18451773,-3.0224433
 6,0.00004465\H,-3.70642595,-3.38824064,0.89396205\H,-3.7069797,-3.3882
 6133,-0.89353106\H,-2.17634624,-3.44597636,-0.00028392\Co,0.00000496,-
 1.20151546,0.00006329\\Version=ES64L-G16RevC.01\HF=-1212.1317548\S2=0.
 \S2-1=0.\S2A=0.\RMSD=2.951e-09\RMSF=1.510e-02\Dipole=-0.0000246,-1.482
 4872,-0.0001191\Quadrupole=13.3580622,7.2087418,-20.566804,0.0000008,-
 0.0003674,0.0003603\PG=C01 [X(C22H17Co1N4)]\\@
 The archive entry for this job was punched.


 FROM AN ANONYMOUS WRITER, ON PERSPECTIVE:

 MAN, DESPITE HIS ARTISTIC PRETENSIONS, HIS SOPHISTICATION AND MANY 
 ACCOMPLISHMENTS, OWES THE FACT OF HIS EXISTENCE TO A SIX-INCH LAYER OF 
 TOPSOIL AND THE FACT THAT IT RAINS.
 Job cpu time:       0 days  0 hours 29 minutes 27.3 seconds.
 Elapsed time:       0 days  0 hours  0 minutes 32.2 seconds.
 File lengths (MBytes):  RWF=    184 Int=      0 D2E=      0 Chk=    162 Scr=      1
 Normal termination of Gaussian 16 at Wed Jul 17 20:58:55 2024.
