 Entering Gaussian System, Link 0=g16
 Input=JOBS/17_A.gjf
 Output=JOBS/17_A.log
 Initial command:
 /data/app/gaussian/C01-avx2//g16/l1.exe "/tmp/Gau-2064135.inp" -scrdir="/tmp/"
 Entering Link 1 = /data/app/gaussian/C01-avx2//g16/l1.exe PID=   2064136.
  
 Copyright (c) 1988-2019, Gaussian, Inc.  All Rights Reserved.
  
 This is part of the Gaussian(R) 16 program.  It is based on
 the Gaussian(R) 09 system (copyright 2009, Gaussian, Inc.),
 the Gaussian(R) 03 system (copyright 2003, Gaussian, Inc.),
 the Gaussian(R) 98 system (copyright 1998, Gaussian, Inc.),
 the Gaussian(R) 94 system (copyright 1995, Gaussian, Inc.),
 the Gaussian 92(TM) system (copyright 1992, Gaussian, Inc.),
 the Gaussian 90(TM) system (copyright 1990, Gaussian, Inc.),
 the Gaussian 88(TM) system (copyright 1988, Gaussian, Inc.),
 the Gaussian 86(TM) system (copyright 1986, Carnegie Mellon
 University), and the Gaussian 82(TM) system (copyright 1983,
 Carnegie Mellon University). Gaussian is a federally registered
 trademark of Gaussian, Inc.
  
 This software contains proprietary and confidential information,
 including trade secrets, belonging to Gaussian, Inc.
  
 This software is provided under written license and may be
 used, copied, transmitted, or stored only in accord with that
 written license.
  
 The following legend is applicable only to US Government
 contracts under FAR:
  
                    RESTRICTED RIGHTS LEGEND
  
 Use, reproduction and disclosure by the US Government is
 subject to restrictions as set forth in subparagraphs (a)
 and (c) of the Commercial Computer Software - Restricted
 Rights clause in FAR 52.227-19.
  
 Gaussian, Inc.
 340 Quinnipiac St., Bldg. 40, Wallingford CT 06492
  
  
 ---------------------------------------------------------------
 Warning -- This program may not be used in any manner that
 competes with the business of Gaussian, Inc. or will provide
 assistance to any competitor of Gaussian, Inc.  The licensee
 of this program is prohibited from giving any competitor of
 Gaussian, Inc. access to this program.  By using this program,
 the user acknowledges that Gaussian, Inc. is engaged in the
 business of creating and licensing software in the field of
 computational chemistry and represents and warrants to the
 licensee that it is not a competitor of Gaussian, Inc. and that
 it will not use this program in any manner prohibited above.
 ---------------------------------------------------------------
  

 Cite this work as:
 Gaussian 16, Revision C.01,
 M. J. Frisch, G. W. Trucks, H. B. Schlegel, G. E. Scuseria, 
 M. A. Robb, J. R. Cheeseman, G. Scalmani, V. Barone, 
 G. A. Petersson, H. Nakatsuji, X. Li, M. Caricato, A. V. Marenich, 
 J. Bloino, B. G. Janesko, R. Gomperts, B. Mennucci, H. P. Hratchian, 
 J. V. Ortiz, A. F. Izmaylov, J. L. Sonnenberg, D. Williams-Young, 
 F. Ding, F. Lipparini, F. Egidi, J. Goings, B. Peng, A. Petrone, 
 T. Henderson, D. Ranasinghe, V. G. Zakrzewski, J. Gao, N. Rega, 
 G. Zheng, W. Liang, M. Hada, M. Ehara, K. Toyota, R. Fukuda, 
 J. Hasegawa, M. Ishida, T. Nakajima, Y. Honda, O. Kitao, H. Nakai, 
 T. Vreven, K. Throssell, J. A. Montgomery, Jr., J. E. Peralta, 
 F. Ogliaro, M. J. Bearpark, J. J. Heyd, E. N. Brothers, K. N. Kudin, 
 V. N. Staroverov, T. A. Keith, R. Kobayashi, J. Normand, 
 K. Raghavachari, A. P. Rendell, J. C. Burant, S. S. Iyengar, 
 J. Tomasi, M. Cossi, J. M. Millam, M. Klene, C. Adamo, R. Cammi, 
 J. W. Ochterski, R. L. Martin, K. Morokuma, O. Farkas, 
 J. B. Foresman, and D. J. Fox, Gaussian, Inc., Wallingford CT, 2019.
 
 ******************************************
 Gaussian 16:  ES64L-G16RevC.01  3-Jul-2019
                17-Jul-2024 
 ******************************************
 %chk=a.chk
 %nprocshared=56
 Will use up to   56 processors via shared memory.
 %mem=96gb
 ----------------------------------------------------------------------
 # pbe1pbe em=gd3bj genecp g09default scf=(xqc,maxcycle=64) force guess
 =read nosymm
 ----------------------------------------------------------------------
 1/10=7,30=1,38=1,158=3,167=1/1,3;
 2/12=2,15=1,17=6,18=5,40=1/2;
 3/5=7,11=2,16=1,17=8,25=1,27=10,30=1,71=1,74=-13,75=-4,116=-2,124=41,158=3/1,2,3;
 4/5=1,60=-1/1;
 5/5=2,7=64,8=3,13=1,38=6,87=10/2,8;
 6/7=2,8=2,9=2,10=2,28=1,87=10/1;
 7/29=1,30=1,87=10/1,2,3,16;
 1/10=7,30=1,158=3,167=1/3;
 99//99;
 Using 2006 physical constants.
 ----------
 Title Card
 ----------
 Symbolic Z-matrix:
 Charge =  0 Multiplicity = 1
 6                     0.        0.79288   0.00011 
 6                    -1.30659   1.35113   0.00004 
 6                    -1.26445   2.74062  -0.00001 
 6                    0.         3.36472   0.00001 
 6                     1.26445   2.74062   0.00004 
 6                     1.3066    1.35113   0.00007 
 1                    -2.16954   3.33746  -0.00005 
 1                     0.        4.45306  -0.00001 
 1                     2.16954   3.33746   0.00005 
 6                     3.68532   0.59025  -0.00002 
 6                     1.89945  -0.90176   0.00012 
 6                     4.16976  -0.74191  -0.00009 
 6                     4.53984   1.66693  -0.00006 
 6                     5.53283  -1.00101  -0.00019 
 6                     5.92678   1.40316  -0.00017 
 1                     4.16758   2.68455   0.00001 
 6                     6.40405   0.10752  -0.00024 
 1                     5.90807  -2.01958  -0.00024 
 1                     6.61316   2.24219  -0.0002 
 1                     7.47283  -0.07066  -0.00033 
 6                    -3.68531   0.59024  -0.00004 
 6                    -1.89944  -0.90176   0.0001 
 6                    -4.16976  -0.74192  -0.00007 
 6                    -4.53984   1.66693  -0.00006 
 6                    -5.53282  -1.00101  -0.0001 
 6                    -5.92677   1.40315  -0.0001 
 1                    -4.16758   2.68454  -0.00002 
 6                    -6.40405   0.10751  -0.00012 
 1                    -5.90807  -2.01959  -0.0001 
 1                    -6.61316   2.24218  -0.00011 
 1                    -7.47282  -0.07067  -0.00015 
 7                    -2.30158   0.48869   0.00001 
 7                    -3.10869  -1.60457  -0.00005 
 7                     2.30158   0.48869   0.00007 
 7                     3.1087   -1.60457  -0.00005 
 6                     3.19163  -3.02131   0.00001 
 1                     3.70848  -3.39594  -0.89475 
 1                     3.70804  -3.39596   0.89503 
 1                     2.1832   -3.44949  -0.00027 
 6                    -3.19162  -3.02132   0.00005 
 1                    -3.70797  -3.39594   0.89511 
 1                    -3.70853  -3.39596  -0.89467 
 1                    -2.18318  -3.44949  -0.00029 
 27                    0.00001  -1.2171    0.00007 
 

 GradGradGradGradGradGradGradGradGradGradGradGradGradGradGradGradGradGrad
 Berny optimization.
 Initialization pass.
 Trust Radius=3.00D-01 FncErr=1.00D-07 GrdErr=1.00D-07 EigMax=2.50D+02 EigMin=1.00D-04
 Number of steps in this run=      2 maximum allowed number of steps=      2.
 GradGradGradGradGradGradGradGradGradGradGradGradGradGradGradGradGradGrad

                          Input orientation:                          
 ---------------------------------------------------------------------
 Center     Atomic      Atomic             Coordinates (Angstroms)
 Number     Number       Type             X           Y           Z
 ---------------------------------------------------------------------
      1          6           0        0.000003    0.792878    0.000106
      2          6           0       -1.306594    1.351129    0.000037
      3          6           0       -1.264448    2.740618   -0.000009
      4          6           0       -0.000001    3.364724    0.000013
      5          6           0        1.264451    2.740620    0.000040
      6          6           0        1.306596    1.351129    0.000072
      7          1           0       -2.169539    3.337457   -0.000046
      8          1           0        0.000000    4.453056   -0.000011
      9          1           0        2.169539    3.337458    0.000046
     10          6           0        3.685322    0.590252   -0.000023
     11          6           0        1.899445   -0.901764    0.000119
     12          6           0        4.169758   -0.741913   -0.000087
     13          6           0        4.539838    1.666928   -0.000056
     14          6           0        5.532830   -1.001006   -0.000191
     15          6           0        5.926779    1.403164   -0.000171
     16          1           0        4.167581    2.684546    0.000009
     17          6           0        6.404047    0.107516   -0.000242
     18          1           0        5.908073   -2.019584   -0.000243
     19          1           0        6.613157    2.242191   -0.000195
     20          1           0        7.472827   -0.070660   -0.000329
     21          6           0       -3.685312    0.590242   -0.000039
     22          6           0       -1.899439   -0.901763    0.000103
     23          6           0       -4.169760   -0.741916   -0.000068
     24          6           0       -4.539843    1.666928   -0.000055
     25          6           0       -5.532816   -1.001015   -0.000099
     26          6           0       -5.926772    1.403154   -0.000100
     27          1           0       -4.167581    2.684540   -0.000024
     28          6           0       -6.404047    0.107510   -0.000123
     29          1           0       -5.908066   -2.019593   -0.000104
     30          1           0       -6.613158    2.242183   -0.000107
     31          1           0       -7.472820   -0.070671   -0.000153
     32          7           0       -2.301582    0.488688    0.000011
     33          7           0       -3.108692   -1.604569   -0.000050
     34          7           0        2.301582    0.488690    0.000074
     35          7           0        3.108698   -1.604565   -0.000051
     36          6           0        3.191628   -3.021314    0.000010
     37          1           0        3.708478   -3.395937   -0.894751
     38          1           0        3.708037   -3.395955    0.895027
     39          1           0        2.183196   -3.449487   -0.000266
     40          6           0       -3.191618   -3.021317    0.000049
     41          1           0       -3.707965   -3.395941    0.895109
     42          1           0       -3.708528   -3.395958   -0.894669
     43          1           0       -2.183185   -3.449489   -0.000293
     44         27           0        0.000006   -1.217105    0.000070
 ---------------------------------------------------------------------
                    Distance matrix (angstroms):
                    1          2          3          4          5
     1  C    0.000000
     2  C    1.420859   0.000000
     3  C    2.322182   1.390129   0.000000
     4  C    2.571846   2.400365   1.410083   0.000000
     5  C    2.322182   2.922492   2.528900   1.410087   0.000000
     6  C    1.420855   2.613190   2.922490   2.400367   1.390130
     7  H    3.343920   2.165681   1.084161   2.169709   3.485470
     8  H    3.660178   3.365879   2.128679   1.088332   2.128679
     9  H    3.343916   4.003624   3.485468   2.169712   1.084159
    10  C    3.690885   5.049570   5.396694   4.612949   3.238008
    11  C    2.545524   3.918445   4.824642   4.670205   3.697320
    12  C    4.443246   5.862700   6.454349   5.852466   4.535288
    13  C    4.623210   5.854955   5.902758   4.846922   3.446879
    14  C    5.816373   7.232583   7.759043   7.047824   5.676163
    15  C    5.958114   7.233560   7.314543   6.242951   4.850370
    16  H    4.576802   5.634234   5.432319   4.222722   2.903671
    17  C    6.440614   7.810286   8.107962   7.184792   5.774832
    18  H    6.543335   7.963236   8.608402   7.993505   6.650020
    19  H    6.770105   7.969721   7.893358   6.707753   5.371880
    20  H    7.522552   8.893802   9.178413   8.224659   6.815220
    21  C    3.690882   2.497448   3.238008   4.612945   5.396692
    22  C    2.545523   2.329590   3.697317   4.670201   4.824641
    23  C    4.443256   3.546626   4.535293   5.852468   6.454356
    24  C    4.623221   3.248635   3.446886   4.846924   5.902766
    25  C    5.816368   4.836686   5.676159   7.047816   7.759038
    26  C    5.958113   4.620471   4.850369   6.242946   7.314541
    27  H    4.576805   3.156459   2.903674   4.222721   5.432322
    28  C    6.440620   5.246962   5.774836   7.184793   8.107967
    29  H    6.543338   5.703973   6.650022   7.993503   8.608404
    30  H    6.770110   5.380855   5.371883   6.707752   7.893362
    31  H    7.522553   6.328022   6.815220   8.224656   9.178413
    32  N    2.321600   1.316740   2.479281   3.683593   4.217557
    33  N    3.925779   3.461749   4.720370   5.861556   6.164824
    34  N    2.321593   3.709816   4.217553   3.683593   2.479280
    35  N    3.925776   5.313279   6.164822   5.861556   4.720369
    36  C    4.973382   6.273138   7.283988   7.139186   6.075680
    37  H    5.665661   6.963205   7.949079   7.762728   6.665677
    38  H    5.665397   6.962926   7.948851   7.762563   6.665558
    39  H    4.771162   5.935027   7.085454   7.155405   6.257916
    40  C    4.973382   4.761470   6.075679   7.139183   7.283987
    41  H    5.665356   5.394665   6.665536   7.762525   7.948802
    42  H    5.665701   5.394870   6.665696   7.762760   7.949127
    43  H    4.771162   4.879994   6.257916   7.155403   7.085453
    44  Co   2.009983   2.881497   4.154807   4.581829   4.154805
                    6          7          8          9         10
     6  C    0.000000
     7  H    4.003625   0.000000
     8  H    3.365879   2.439562   0.000000
     9  H    2.165681   4.339078   2.439561   0.000000
    10  C    2.497453   6.467344   5.338806   3.137633   0.000000
    11  C    2.329591   5.876022   5.681724   4.247817   2.327115
    12  C    3.546621   7.538431   6.661425   4.543362   1.417512
    13  C    3.248628   6.914218   5.326597   2.899826   1.374566
    14  C    4.836693   8.840179   7.769106   5.489444   2.438317
    15  C    4.620476   8.324173   6.665474   4.225913   2.384315
    16  H    3.156460   6.370666   4.527290   2.102015   2.149103
    17  C    5.246960   9.161818   7.739221   5.325747   2.761250
    18  H    5.703972   9.692560   8.763583   6.532575   3.428099
    19  H    5.380854   8.850727   6.972931   4.576609   3.361715
    20  H    6.328024  10.226949   8.735396   6.303977   3.844736
    21  C    5.049564   3.137636   5.338807   6.467339   7.370634
    22  C    3.918441   4.247817   5.681721   5.876018   5.780628
    23  C    5.862705   4.543366   6.661429   7.538436   7.967245
    24  C    5.854962   2.899829   5.326602   6.914223   8.295334
    25  C    7.232574   5.489442   7.769102   8.840171   9.354474
    26  C    7.233555   4.225912   6.665473   8.324169   9.646407
    27  H    5.634234   2.102016   4.527293   6.370667   8.127369
    28  C    7.810288   5.325750   7.739224   9.161820  10.100911
    29  H    7.963234   6.532577   8.763585   9.692559   9.942051
    30  H    7.969722   4.576612   6.972935   8.850729  10.430128
    31  H    8.893799   6.303977   8.735396  10.226947  11.177699
    32  N    3.709818   2.851828   4.584048   5.301548   5.987765
    33  N    5.313278   5.030471   6.808729   7.230723   7.139738
    34  N    1.316738   5.301547   4.584046   2.851827   1.387462
    35  N    3.461748   7.230724   6.808728   5.030468   2.269298
    36  C    4.761471   8.317216   8.127281   6.440392   3.645153
    37  H    5.394847   8.982771   8.726973   6.964740   4.085434
    38  H    5.394689   8.982533   8.726832   6.964684   4.085520
    39  H    4.879994   8.062811   8.198569   6.786959   4.309974
    40  C    6.273134   6.440392   8.127280   8.317213   7.767608
    41  H    6.962872   6.964676   8.726798   8.982475   8.446993
    42  H    6.963251   6.964748   8.727005   8.982821   8.447442
    43  H    5.935023   6.786960   8.198568   8.062807   7.124526
    44  Co   2.881493   5.044895   5.670161   5.044890   4.104642
                   11         12         13         14         15
    11  C    0.000000
    12  C    2.275933   0.000000
    13  C    3.683728   2.437103   0.000000
    14  C    3.634740   1.387478   2.846736   0.000000
    15  C    4.640270   2.772810   1.411799   2.436233   0.000000
    16  H    4.243354   3.426459   1.083569   3.930293   2.176400
    17  C    4.616285   2.390309   2.430440   1.409908   1.380757
    18  H    4.161565   2.157356   3.932231   1.085499   3.422799
    19  H    5.665998   3.856822   2.151646   3.418396   1.084011
    20  H    5.635008   3.370585   3.409051   2.151541   2.135982
    21  C    5.780623   7.967231   8.295321   9.354476   9.646405
    22  C    3.798884   6.071302   6.932710   7.432932   8.158577
    23  C    6.071310   8.339518   9.036572   9.706049  10.321893
    24  C    6.932721   9.036574   9.079682  10.420011  10.469945
    25  C    7.432924   9.706033  10.419994  11.065646  11.709073
    26  C    8.158574  10.321882  10.469934  11.709077  11.853551
    27  H    7.047722   9.013978   8.766680  10.376957  10.175364
    28  C    8.364605  10.607868  11.054429  11.988238  12.398709
    29  H    7.887127  10.158494  11.079221  11.486149  12.319854
    30  H    9.074625  11.188213  11.167822  12.571528  12.567974
    31  H    9.409043  11.661912  12.137678  13.038883  13.480410
    32  N    4.425154   6.587308   6.942138   7.974786   8.279021
    33  N    5.057210   7.329394   8.318817   8.662575   9.522930
    34  N    1.447437   2.237066   2.529434   3.558112   3.738759
    35  N    1.398650   1.367486   3.570830   2.498139   4.121652
    36  C    2.482384   2.480405   4.878246   3.092389   5.201640
    37  H    3.208472   2.838494   5.208093   3.140731   5.362136
    38  H    3.208248   2.838725   5.208249   3.141189   5.362438
    39  H    2.563476   3.358182   5.633069   4.149110   6.128837
    40  C    5.514656   7.706201   9.041850   8.955314  10.135147
    41  H    6.202014   8.360847   9.719065   9.587991  10.800983
    42  H    6.202501   8.361317   9.719501   9.588461  10.801428
    43  H    4.812357   6.905856   8.448477   8.095181   9.450913
    44  Co   1.925438   4.196742   5.378450   5.537043   6.480158
                   16         17         18         19         20
    16  H    0.000000
    17  C    3.412164   0.000000
    18  H    5.015790   2.184158   0.000000
    19  H    2.485261   2.144892   4.319707   0.000000
    20  H    4.303000   1.083529   2.499352   2.467450   0.000000
    21  C    8.127363  10.100901   9.942044  10.430120  11.177694
    22  C    7.047719   8.364600   7.887127   9.074621   9.409043
    23  C    9.013984  10.607872  10.158502  11.188217  11.661922
    24  C    8.766686  11.054434  11.079230  11.167827  12.137687
    25  C   10.376948  11.988225  11.486141  12.571517  13.038876
    26  C   10.175359  12.398701  12.319850  12.567968  13.480407
    27  H    8.335162  10.881194  11.119694  10.789810  11.962032
    28  C   10.881196  12.808094  12.494512  13.191075  13.878017
    29  H   11.119693  12.494508  11.816139  13.226633  13.522079
    30  H   10.789811  13.191074  13.226636  13.226315  14.274600
    31  H   11.962030  13.878012  13.522077  14.274596  14.945647
    32  N    6.831681   8.713970   8.584280   9.085557   9.790400
    33  N    8.446340   9.665581   9.026311  10.455234  10.692119
    34  N    2.881620   4.120135   4.392973   4.654508   5.201408
    35  N    4.417885   3.713563   2.829972   5.203726   4.625849
    36  C    5.788723   4.484330   2.895261   6.277845   5.199521
    37  H    6.163087   4.510036   2.744578   6.405144   5.101742
    38  H    6.163175   4.510465   2.745190   6.405454   5.102244
    39  H    6.447026   5.519770   3.989904   7.212472   6.276676
    40  C    9.312072  10.092888   9.154663  11.128258  11.065114
    41  H    9.989883  10.739118   9.755214  11.794731  11.699120
    42  H    9.990299  10.739577   9.755687  11.795168  11.699579
    43  H    8.829417   9.294775   8.216635  10.477159  10.230105
    44  Co   5.708902   6.539600   5.962318   7.463277   7.560250
                   21         22         23         24         25
    21  C    0.000000
    22  C    2.327106   0.000000
    23  C    1.417511   2.275941   0.000000
    24  C    1.374582   3.683736   2.437108   0.000000
    25  C    2.438313   3.634732   1.387463   2.846738   0.000000
    26  C    2.384318   4.640265   2.772800   1.411789   2.436233
    27  H    2.149108   4.243352   3.426457   1.083565   3.930290
    28  C    2.761259   4.616289   2.390306   2.430441   1.409919
    29  H    3.428100   4.161566   2.157351   3.932235   1.085501
    30  H    3.361724   5.665999   3.856817   2.151639   3.418402
    31  H    3.844740   5.635006   3.370575   3.409048   2.151548
    32  N    1.387452   1.447437   2.237069   2.529439   3.558102
    33  N    2.269293   1.398653   1.367493   3.570839   2.498130
    34  N    5.987755   4.425148   6.587311   6.942143   7.974773
    35  N    7.139731   5.057210   7.329401   8.318825   8.662565
    36  C    7.767602   5.514659   7.706211   9.041862   8.955307
    37  H    8.447382   6.202451   8.361275   9.719459   9.588408
    38  H    8.447042   6.202070   8.360909   9.719130   9.588032
    39  H    7.124521   4.812360   6.905866   8.448489   8.095175
    40  C    3.645147   2.482385   2.480409   4.878253   3.092382
    41  H    4.085519   3.208228   2.838740   5.208262   3.141202
    42  H    4.085425   3.208493   2.838483   5.208093   3.140706
    43  H    4.309967   2.563478   3.358189   5.633078   4.149103
    44  Co   4.104641   1.925443   4.196755   5.378464   5.537040
                   26         27         28         29         30
    26  C    0.000000
    27  H    2.176397   0.000000
    28  C    1.380755   3.412164   0.000000
    29  H    3.422798   5.015790   2.184162   0.000000
    30  H    1.084017   2.485262   2.144891   4.319709   0.000000
    31  H    2.135983   4.302998   1.083524   2.499351   2.467450
    32  N    3.738750   2.881617   4.120135   4.392971   4.654506
    33  N    4.121648   4.417885   3.713567   2.829971   5.203728
    34  N    8.279014   6.831678   8.713970   8.584276   9.085556
    35  N    9.522925   8.446340   9.665584   9.026310  10.455236
    36  C   10.135144   9.312074  10.092894   9.154664  11.128263
    37  H   10.801376   9.990247  10.739537   9.755646  11.795124
    38  H   10.801030   9.989940  10.739171   9.755258  11.794784
    39  H    9.450911   8.829420   9.294782   8.216636  10.477163
    40  C    5.201636   5.788722   4.484335   2.895262   6.277847
    41  H    5.362446   6.163178   4.510484   2.745211   6.405466
    42  H    5.362121   6.163082   4.510025   2.744557   6.405134
    43  H    6.128833   6.447026   5.519775   3.989905   7.212475
    44  Co   6.480159   5.708907   6.539610   5.962323   7.463284
                   31         32         33         34         35
    31  H    0.000000
    32  N    5.201403   0.000000
    33  N    4.625847   2.243469   0.000000
    34  N    9.790395   4.603164   5.801103   0.000000
    35  N   10.692117   5.801107   6.217390   2.243469   0.000000
    36  C   11.065114   6.518855   6.457647   3.621092   1.419174
    37  H   11.699536   7.211916   7.105160   4.227338   2.090272
    38  H   11.699164   7.211590   7.104789   4.227236   2.090323
    39  H   10.230105   5.968455   5.604266   3.939956   2.064048
    40  C    5.199520   3.621091   1.419172   6.518849   6.457644
    41  H    5.102260   4.227228   2.090323   7.211526   7.104734
    42  H    5.101724   4.227343   2.090268   7.211968   7.105210
    43  H    6.276676   3.939957   2.064048   5.968449   5.604264
    44  Co   7.560254   2.864793   3.132752   2.864784   3.132745
                   36         37         38         39         40
    36  C    0.000000
    37  H    1.099124   0.000000
    38  H    1.099131   1.789778   0.000000
    39  H    1.095568   1.769027   1.769055   0.000000
    40  C    6.383246   6.967950   6.967537   5.391841   0.000000
    41  H    6.967491   7.629366   7.416002   5.959055   1.099132
    42  H    6.967996   7.417006   7.629446   5.959466   1.099123
    43  H    5.391841   5.959414   5.959107   4.366381   1.095568
    44  Co   3.666282   4.393265   4.392929   3.122475   3.666285
                   41         42         43         44
    41  H    0.000000
    42  H    1.789778   0.000000
    43  H    1.769058   1.769024   0.000000
    44  Co   4.392889   4.393311   3.122477   0.000000
 Symmetry turned off by external request.
 Stoichiometry    C22H17CoN4
 Framework group  C1[X(C22H17CoN4)]
 Deg. of freedom   126
 Full point group                 C1      NOp   1
 Rotational constants (GHZ):           0.4675134           0.1008106           0.0830165
 General basis read from cards:  (5D, 7F)
 ======================================================================================================
                                       Pseudopotential Parameters
 ======================================================================================================
  Center     Atomic      Valence      Angular      Power
  Number     Number     Electrons     Momentum     of R      Exponent        Coefficient   SO-Coeffient
 ======================================================================================================
    1          6
                                   No pseudopotential on this center.
    2          6
                                   No pseudopotential on this center.
    3          6
                                   No pseudopotential on this center.
    4          6
                                   No pseudopotential on this center.
    5          6
                                   No pseudopotential on this center.
    6          6
                                   No pseudopotential on this center.
    7          1
                                   No pseudopotential on this center.
    8          1
                                   No pseudopotential on this center.
    9          1
                                   No pseudopotential on this center.
   10          6
                                   No pseudopotential on this center.
   11          6
                                   No pseudopotential on this center.
   12          6
                                   No pseudopotential on this center.
   13          6
                                   No pseudopotential on this center.
   14          6
                                   No pseudopotential on this center.
   15          6
                                   No pseudopotential on this center.
   16          1
                                   No pseudopotential on this center.
   17          6
                                   No pseudopotential on this center.
   18          1
                                   No pseudopotential on this center.
   19          1
                                   No pseudopotential on this center.
   20          1
                                   No pseudopotential on this center.
   21          6
                                   No pseudopotential on this center.
   22          6
                                   No pseudopotential on this center.
   23          6
                                   No pseudopotential on this center.
   24          6
                                   No pseudopotential on this center.
   25          6
                                   No pseudopotential on this center.
   26          6
                                   No pseudopotential on this center.
   27          1
                                   No pseudopotential on this center.
   28          6
                                   No pseudopotential on this center.
   29          1
                                   No pseudopotential on this center.
   30          1
                                   No pseudopotential on this center.
   31          1
                                   No pseudopotential on this center.
   32          7
                                   No pseudopotential on this center.
   33          7
                                   No pseudopotential on this center.
   34          7
                                   No pseudopotential on this center.
   35          7
                                   No pseudopotential on this center.
   36          6
                                   No pseudopotential on this center.
   37          1
                                   No pseudopotential on this center.
   38          1
                                   No pseudopotential on this center.
   39          1
                                   No pseudopotential on this center.
   40          6
                                   No pseudopotential on this center.
   41          1
                                   No pseudopotential on this center.
   42          1
                                   No pseudopotential on this center.
   43          1
                                   No pseudopotential on this center.
   44         27           17
                                      F and up 
                                                     2        1.0000000        0.00000000    0.00000000
                                      S - F
                                                     2       23.6600000      283.96056600    0.00000000
                                                     2       10.6100000       47.15684600    0.00000000
                                      P - F
                                                     2       25.0400000      182.21223600    0.00000000
                                                     2       10.4400000       35.23335200    0.00000000
                                      D - F
                                                     2       29.5400000      -26.47533300    0.00000000
                                                     2       10.1800000       -1.82578700    0.00000000
 ======================================================================================================
   441 basis functions,   871 primitive gaussians,   473 cartesian basis functions
    97 alpha electrons       97 beta electrons
       nuclear repulsion energy      2491.1327494764 Hartrees.
 NAtoms=   44 NActive=   44 NUniq=   44 SFac= 1.00D+00 NAtFMM=   60 NAOKFM=F Big=F
 Integral buffers will be    131072 words long.
 Raffenetti 2 integral format.
 Two-electron integral symmetry is turned off.
 Nuclear repulsion after empirical dispersion term =     2491.0735205109 Hartrees.
 One-electron integrals computed using PRISM.
   1 Symmetry operations used in ECPInt.
 ECPInt:  NShTT=   11781 NPrTT=   71406 LenC2=    9530 LenP2D=   32074.
 LDataN:  DoStor=T MaxTD1= 6 Len=  172
 NBasis=   441 RedAO= T EigKep=  3.28D-04  NBF=   441
 NBsUse=   441 1.00D-06 EigRej= -1.00D+00 NBFU=   441
 Initial guess from the checkpoint file:  "a.chk"
 B after Tr=     0.000000   -0.000863    0.000001
         Rot=    1.000000    0.000001    0.000000   -0.000000 Ang=   0.00 deg.
 Initial guess <Sx>= 0.0000 <Sy>= 0.0000 <Sz>= 0.0000 <S**2>= 0.0000 S= 0.0000
 Requested convergence on RMS density matrix=1.00D-08 within  64 cycles.
 Requested convergence on MAX density matrix=1.00D-06.
 Requested convergence on             energy=1.00D-06.
 No special actions if energy rises.
 EnCoef did     4 forward-backward iterations
 SCF Done:  E(UPBE1PBE) =  -1212.10284951     A.U. after   16 cycles
            NFock= 16  Conv=0.48D-08     -V/T= 2.0551
 <Sx>= 0.0000 <Sy>= 0.0000 <Sz>= 0.0000 <S**2>= 0.0000 S= 0.0000
 <L.S>=  0.00000000000    
 Annihilation of the first spin contaminant:
 S**2 before annihilation     0.0000,   after     0.0000
 QCSCF skips out because SCF is already converged.

 **********************************************************************

            Population analysis using the SCF Density.

 **********************************************************************

 Alpha  occ. eigenvalues --  -14.45895 -14.45895 -14.45153 -14.45153 -10.28546
 Alpha  occ. eigenvalues --  -10.28545 -10.27662 -10.27662 -10.27517 -10.27516
 Alpha  occ. eigenvalues --  -10.27396 -10.27395 -10.25044 -10.25044 -10.24172
 Alpha  occ. eigenvalues --  -10.24172 -10.23893 -10.23893 -10.23451 -10.23451
 Alpha  occ. eigenvalues --  -10.23393 -10.23393 -10.21245 -10.21242 -10.20953
 Alpha  occ. eigenvalues --  -10.19541  -3.83522  -2.35261  -2.35126  -2.31544
 Alpha  occ. eigenvalues --   -1.06069  -1.05995  -0.97825  -0.97532  -0.88253
 Alpha  occ. eigenvalues --   -0.88014  -0.84631  -0.80672  -0.78929  -0.77987
 Alpha  occ. eigenvalues --   -0.77872  -0.75596  -0.75092  -0.72980  -0.71382
 Alpha  occ. eigenvalues --   -0.66849  -0.65526  -0.64627  -0.64136  -0.62645
 Alpha  occ. eigenvalues --   -0.61607  -0.58790  -0.57221  -0.56751  -0.54223
 Alpha  occ. eigenvalues --   -0.53309  -0.51885  -0.49852  -0.49789  -0.49081
 Alpha  occ. eigenvalues --   -0.48763  -0.47964  -0.47452  -0.46634  -0.46257
 Alpha  occ. eigenvalues --   -0.45686  -0.45410  -0.44985  -0.44916  -0.44354
 Alpha  occ. eigenvalues --   -0.42351  -0.41830  -0.40709  -0.38616  -0.38407
 Alpha  occ. eigenvalues --   -0.38133  -0.37524  -0.37116  -0.36953  -0.36131
 Alpha  occ. eigenvalues --   -0.35641  -0.34492  -0.34348  -0.33984  -0.31433
 Alpha  occ. eigenvalues --   -0.29275  -0.26724  -0.25851  -0.24822  -0.24439
 Alpha  occ. eigenvalues --   -0.22359  -0.21131  -0.20522  -0.20232  -0.16312
 Alpha  occ. eigenvalues --   -0.15616  -0.15337
 Alpha virt. eigenvalues --   -0.05032  -0.02617  -0.00717  -0.00086   0.00701
 Alpha virt. eigenvalues --    0.01287   0.02039   0.03270   0.05355   0.05832
 Alpha virt. eigenvalues --    0.06268   0.07219   0.09293   0.09347   0.10135
 Alpha virt. eigenvalues --    0.10629   0.12665   0.13123   0.14044   0.14183
 Alpha virt. eigenvalues --    0.15266   0.15601   0.15826   0.16033   0.16480
 Alpha virt. eigenvalues --    0.16807   0.17061   0.17792   0.18022   0.18245
 Alpha virt. eigenvalues --    0.19258   0.19305   0.19710   0.20312   0.21866
 Alpha virt. eigenvalues --    0.22165   0.22266   0.22697   0.22798   0.23791
 Alpha virt. eigenvalues --    0.25885   0.26341   0.26888   0.27782   0.27789
 Alpha virt. eigenvalues --    0.28506   0.29343   0.29357   0.31383   0.31553
 Alpha virt. eigenvalues --    0.32168   0.33498   0.33749   0.34600   0.34849
 Alpha virt. eigenvalues --    0.36175   0.37559   0.37754   0.39519   0.39811
 Alpha virt. eigenvalues --    0.41229   0.42814   0.44340   0.45308   0.46282
 Alpha virt. eigenvalues --    0.47289   0.48487   0.49882   0.51856   0.51902
 Alpha virt. eigenvalues --    0.52261   0.53529   0.53756   0.56049   0.56053
 Alpha virt. eigenvalues --    0.56877   0.56954   0.57081   0.58032   0.58483
 Alpha virt. eigenvalues --    0.58790   0.59212   0.59263   0.60118   0.61419
 Alpha virt. eigenvalues --    0.61592   0.61923   0.63070   0.63086   0.63249
 Alpha virt. eigenvalues --    0.63257   0.63411   0.63628   0.64378   0.64404
 Alpha virt. eigenvalues --    0.65332   0.65994   0.66376   0.66995   0.67413
 Alpha virt. eigenvalues --    0.67780   0.68423   0.68588   0.69290   0.70994
 Alpha virt. eigenvalues --    0.72495   0.72875   0.73903   0.75531   0.76210
 Alpha virt. eigenvalues --    0.76516   0.77520   0.78399   0.79797   0.80073
 Alpha virt. eigenvalues --    0.81073   0.81718   0.82808   0.83528   0.83856
 Alpha virt. eigenvalues --    0.84139   0.84509   0.84970   0.86514   0.86625
 Alpha virt. eigenvalues --    0.87433   0.87528   0.88358   0.90189   0.90330
 Alpha virt. eigenvalues --    0.90468   0.91655   0.91738   0.92835   0.93083
 Alpha virt. eigenvalues --    0.93625   0.93793   0.95528   0.95881   0.95944
 Alpha virt. eigenvalues --    0.95969   0.97300   0.97940   0.97986   0.98343
 Alpha virt. eigenvalues --    0.98378   1.00129   1.00433   1.01882   1.01882
 Alpha virt. eigenvalues --    1.02456   1.03402   1.04314   1.06570   1.07263
 Alpha virt. eigenvalues --    1.09166   1.10015   1.10706   1.11153   1.14166
 Alpha virt. eigenvalues --    1.15138   1.15344   1.16297   1.16883   1.18461
 Alpha virt. eigenvalues --    1.18696   1.19330   1.19909   1.23845   1.24175
 Alpha virt. eigenvalues --    1.24527   1.26054   1.26985   1.27174   1.28286
 Alpha virt. eigenvalues --    1.29437   1.29545   1.30559   1.33033   1.33520
 Alpha virt. eigenvalues --    1.34042   1.36108   1.36302   1.36864   1.39058
 Alpha virt. eigenvalues --    1.40781   1.41729   1.42592   1.42626   1.43333
 Alpha virt. eigenvalues --    1.44856   1.45040   1.45332   1.46720   1.48008
 Alpha virt. eigenvalues --    1.48238   1.49229   1.49939   1.49964   1.50884
 Alpha virt. eigenvalues --    1.51496   1.52555   1.53477   1.55388   1.57838
 Alpha virt. eigenvalues --    1.57959   1.60177   1.61677   1.65731   1.66113
 Alpha virt. eigenvalues --    1.66209   1.69837   1.72349   1.72556   1.76523
 Alpha virt. eigenvalues --    1.77396   1.78231   1.80318   1.80686   1.81875
 Alpha virt. eigenvalues --    1.82853   1.86456   1.86972   1.87960   1.88025
 Alpha virt. eigenvalues --    1.88782   1.88849   1.91059   1.91419   1.91991
 Alpha virt. eigenvalues --    1.94021   1.95235   1.95651   1.96593   1.97243
 Alpha virt. eigenvalues --    1.98190   1.98411   1.98589   1.99351   1.99487
 Alpha virt. eigenvalues --    1.99765   2.00333   2.01726   2.03370   2.04029
 Alpha virt. eigenvalues --    2.05249   2.06195   2.07859   2.08669   2.08997
 Alpha virt. eigenvalues --    2.12101   2.12624   2.13823   2.14613   2.14940
 Alpha virt. eigenvalues --    2.16253   2.16351   2.16511   2.18985   2.19809
 Alpha virt. eigenvalues --    2.20121   2.20889   2.21268   2.21817   2.22814
 Alpha virt. eigenvalues --    2.23869   2.24981   2.25646   2.26729   2.27594
 Alpha virt. eigenvalues --    2.27899   2.28103   2.28540   2.28751   2.29542
 Alpha virt. eigenvalues --    2.32935   2.35004   2.38842   2.40080   2.40634
 Alpha virt. eigenvalues --    2.40943   2.44008   2.44210   2.47173   2.47714
 Alpha virt. eigenvalues --    2.51695   2.51841   2.53185   2.57128   2.58811
 Alpha virt. eigenvalues --    2.58896   2.59289   2.61054   2.61599   2.61847
 Alpha virt. eigenvalues --    2.64678   2.64734   2.66251   2.68869   2.69271
 Alpha virt. eigenvalues --    2.69331   2.69788   2.72686   2.74787   2.76108
 Alpha virt. eigenvalues --    2.76571   2.76894   2.77546   2.78884   2.80359
 Alpha virt. eigenvalues --    2.80815   2.83990   2.85738   2.88427   2.89161
 Alpha virt. eigenvalues --    2.93563   2.95027   2.98189   2.98427   3.00657
 Alpha virt. eigenvalues --    3.01503   3.06355   3.06765   3.17050   3.20383
 Alpha virt. eigenvalues --    3.20489   3.30730   3.39909   3.47934   3.48676
 Alpha virt. eigenvalues --    3.52265   3.54822   3.61277   5.66400   5.66831
 Alpha virt. eigenvalues --    5.67392   5.68290   5.68417   5.69526   5.71752
 Alpha virt. eigenvalues --   45.81657  45.96877  46.03019  63.11281
  Beta  occ. eigenvalues --  -14.45895 -14.45895 -14.45153 -14.45153 -10.28546
  Beta  occ. eigenvalues --  -10.28545 -10.27662 -10.27662 -10.27517 -10.27516
  Beta  occ. eigenvalues --  -10.27396 -10.27395 -10.25044 -10.25044 -10.24172
  Beta  occ. eigenvalues --  -10.24172 -10.23893 -10.23893 -10.23451 -10.23451
  Beta  occ. eigenvalues --  -10.23393 -10.23393 -10.21245 -10.21242 -10.20953
  Beta  occ. eigenvalues --  -10.19541  -3.83523  -2.35261  -2.35127  -2.31545
  Beta  occ. eigenvalues --   -1.06069  -1.05995  -0.97825  -0.97532  -0.88253
  Beta  occ. eigenvalues --   -0.88014  -0.84631  -0.80672  -0.78929  -0.77987
  Beta  occ. eigenvalues --   -0.77872  -0.75596  -0.75092  -0.72980  -0.71382
  Beta  occ. eigenvalues --   -0.66849  -0.65526  -0.64627  -0.64136  -0.62645
  Beta  occ. eigenvalues --   -0.61607  -0.58790  -0.57221  -0.56751  -0.54223
  Beta  occ. eigenvalues --   -0.53309  -0.51885  -0.49852  -0.49789  -0.49081
  Beta  occ. eigenvalues --   -0.48763  -0.47964  -0.47452  -0.46634  -0.46257
  Beta  occ. eigenvalues --   -0.45686  -0.45410  -0.44985  -0.44916  -0.44354
  Beta  occ. eigenvalues --   -0.42351  -0.41830  -0.40709  -0.38616  -0.38407
  Beta  occ. eigenvalues --   -0.38133  -0.37524  -0.37116  -0.36953  -0.36131
  Beta  occ. eigenvalues --   -0.35641  -0.34492  -0.34348  -0.33984  -0.31433
  Beta  occ. eigenvalues --   -0.29275  -0.26724  -0.25851  -0.24822  -0.24439
  Beta  occ. eigenvalues --   -0.22359  -0.21131  -0.20522  -0.20231  -0.16312
  Beta  occ. eigenvalues --   -0.15616  -0.15338
  Beta virt. eigenvalues --   -0.05032  -0.02617  -0.00717  -0.00086   0.00701
  Beta virt. eigenvalues --    0.01287   0.02039   0.03270   0.05355   0.05832
  Beta virt. eigenvalues --    0.06268   0.07219   0.09293   0.09347   0.10135
  Beta virt. eigenvalues --    0.10629   0.12665   0.13123   0.14044   0.14183
  Beta virt. eigenvalues --    0.15266   0.15601   0.15826   0.16033   0.16480
  Beta virt. eigenvalues --    0.16807   0.17061   0.17792   0.18022   0.18245
  Beta virt. eigenvalues --    0.19258   0.19305   0.19710   0.20312   0.21866
  Beta virt. eigenvalues --    0.22165   0.22266   0.22697   0.22798   0.23791
  Beta virt. eigenvalues --    0.25885   0.26341   0.26888   0.27782   0.27789
  Beta virt. eigenvalues --    0.28506   0.29343   0.29357   0.31383   0.31553
  Beta virt. eigenvalues --    0.32168   0.33498   0.33749   0.34600   0.34849
  Beta virt. eigenvalues --    0.36175   0.37559   0.37754   0.39519   0.39811
  Beta virt. eigenvalues --    0.41229   0.42814   0.44340   0.45308   0.46282
  Beta virt. eigenvalues --    0.47289   0.48487   0.49882   0.51856   0.51902
  Beta virt. eigenvalues --    0.52261   0.53529   0.53756   0.56049   0.56053
  Beta virt. eigenvalues --    0.56877   0.56954   0.57081   0.58032   0.58483
  Beta virt. eigenvalues --    0.58790   0.59212   0.59263   0.60118   0.61419
  Beta virt. eigenvalues --    0.61592   0.61923   0.63070   0.63086   0.63249
  Beta virt. eigenvalues --    0.63257   0.63411   0.63628   0.64378   0.64404
  Beta virt. eigenvalues --    0.65332   0.65994   0.66376   0.66995   0.67413
  Beta virt. eigenvalues --    0.67780   0.68423   0.68588   0.69290   0.70994
  Beta virt. eigenvalues --    0.72495   0.72875   0.73903   0.75531   0.76210
  Beta virt. eigenvalues --    0.76516   0.77520   0.78399   0.79797   0.80073
  Beta virt. eigenvalues --    0.81073   0.81718   0.82808   0.83528   0.83856
  Beta virt. eigenvalues --    0.84139   0.84509   0.84970   0.86514   0.86625
  Beta virt. eigenvalues --    0.87433   0.87528   0.88358   0.90189   0.90330
  Beta virt. eigenvalues --    0.90468   0.91655   0.91738   0.92835   0.93083
  Beta virt. eigenvalues --    0.93625   0.93793   0.95528   0.95881   0.95944
  Beta virt. eigenvalues --    0.95969   0.97300   0.97940   0.97986   0.98343
  Beta virt. eigenvalues --    0.98378   1.00129   1.00433   1.01882   1.01882
  Beta virt. eigenvalues --    1.02456   1.03402   1.04314   1.06570   1.07263
  Beta virt. eigenvalues --    1.09166   1.10015   1.10706   1.11153   1.14166
  Beta virt. eigenvalues --    1.15138   1.15344   1.16297   1.16883   1.18461
  Beta virt. eigenvalues --    1.18696   1.19330   1.19909   1.23845   1.24175
  Beta virt. eigenvalues --    1.24527   1.26054   1.26985   1.27174   1.28286
  Beta virt. eigenvalues --    1.29437   1.29545   1.30559   1.33032   1.33520
  Beta virt. eigenvalues --    1.34042   1.36108   1.36302   1.36864   1.39058
  Beta virt. eigenvalues --    1.40781   1.41729   1.42592   1.42626   1.43333
  Beta virt. eigenvalues --    1.44856   1.45040   1.45332   1.46720   1.48008
  Beta virt. eigenvalues --    1.48238   1.49229   1.49939   1.49964   1.50884
  Beta virt. eigenvalues --    1.51496   1.52555   1.53477   1.55388   1.57838
  Beta virt. eigenvalues --    1.57959   1.60177   1.61677   1.65731   1.66113
  Beta virt. eigenvalues --    1.66209   1.69837   1.72349   1.72556   1.76523
  Beta virt. eigenvalues --    1.77396   1.78231   1.80318   1.80686   1.81875
  Beta virt. eigenvalues --    1.82853   1.86456   1.86972   1.87960   1.88025
  Beta virt. eigenvalues --    1.88783   1.88849   1.91059   1.91419   1.91991
  Beta virt. eigenvalues --    1.94021   1.95235   1.95651   1.96593   1.97243
  Beta virt. eigenvalues --    1.98190   1.98411   1.98589   1.99351   1.99487
  Beta virt. eigenvalues --    1.99765   2.00333   2.01726   2.03370   2.04029
  Beta virt. eigenvalues --    2.05249   2.06195   2.07859   2.08669   2.08997
  Beta virt. eigenvalues --    2.12101   2.12624   2.13823   2.14613   2.14940
  Beta virt. eigenvalues --    2.16253   2.16351   2.16511   2.18985   2.19809
  Beta virt. eigenvalues --    2.20121   2.20889   2.21268   2.21817   2.22814
  Beta virt. eigenvalues --    2.23869   2.24981   2.25646   2.26729   2.27594
  Beta virt. eigenvalues --    2.27899   2.28103   2.28540   2.28751   2.29542
  Beta virt. eigenvalues --    2.32935   2.35004   2.38842   2.40080   2.40634
  Beta virt. eigenvalues --    2.40943   2.44008   2.44210   2.47173   2.47714
  Beta virt. eigenvalues --    2.51695   2.51841   2.53185   2.57128   2.58811
  Beta virt. eigenvalues --    2.58896   2.59289   2.61054   2.61599   2.61847
  Beta virt. eigenvalues --    2.64678   2.64734   2.66251   2.68869   2.69271
  Beta virt. eigenvalues --    2.69331   2.69788   2.72686   2.74787   2.76108
  Beta virt. eigenvalues --    2.76571   2.76894   2.77546   2.78884   2.80359
  Beta virt. eigenvalues --    2.80815   2.83990   2.85738   2.88427   2.89161
  Beta virt. eigenvalues --    2.93563   2.95027   2.98189   2.98427   3.00657
  Beta virt. eigenvalues --    3.01503   3.06355   3.06765   3.17050   3.20383
  Beta virt. eigenvalues --    3.20489   3.30730   3.39909   3.47934   3.48676
  Beta virt. eigenvalues --    3.52265   3.54822   3.61277   5.66400   5.66831
  Beta virt. eigenvalues --    5.67391   5.68290   5.68417   5.69526   5.71752
  Beta virt. eigenvalues --   45.81657  45.96876  46.03020  63.11281
          Condensed to atoms (all electrons):
               1          2          3          4          5          6
     1  C    5.136797   0.513634  -0.065439  -0.058425  -0.065439   0.513635
     2  C    0.513634   4.634287   0.521290  -0.018278  -0.037382  -0.016941
     3  C   -0.065439   0.521290   5.048029   0.536181  -0.031415  -0.037382
     4  C   -0.058425  -0.018278   0.536181   4.912435   0.536180  -0.018278
     5  C   -0.065439  -0.037382  -0.031415   0.536180   5.048031   0.521290
     6  C    0.513635  -0.016941  -0.037382  -0.018278   0.521290   4.634282
     7  H    0.006062  -0.041060   0.341268  -0.038349   0.003662   0.000774
     8  H    0.001762   0.002926  -0.037067   0.362647  -0.037067   0.002926
     9  H    0.006062   0.000774   0.003662  -0.038349   0.341268  -0.041060
    10  C    0.006311  -0.000038   0.000002   0.000153  -0.005687  -0.052098
    11  C    0.007163   0.002276  -0.000034   0.000042   0.003139  -0.069209
    12  C   -0.000694   0.000002  -0.000000   0.000001   0.000121   0.008060
    13  C    0.000150  -0.000000  -0.000001   0.000048   0.002569  -0.003941
    14  C    0.000002  -0.000000   0.000000  -0.000000   0.000003  -0.000023
    15  C    0.000002  -0.000000   0.000000  -0.000001   0.000082   0.000076
    16  H   -0.000028   0.000000   0.000001   0.000101   0.000355   0.000780
    17  C    0.000000   0.000000   0.000000   0.000000  -0.000001  -0.000004
    18  H   -0.000000   0.000000   0.000000   0.000000  -0.000000   0.000003
    19  H   -0.000000   0.000000  -0.000000   0.000000   0.000002  -0.000003
    20  H    0.000000  -0.000000   0.000000  -0.000000  -0.000000  -0.000000
    21  C    0.006311  -0.052098  -0.005687   0.000153   0.000002  -0.000038
    22  C    0.007163  -0.069209   0.003139   0.000042  -0.000034   0.002276
    23  C   -0.000694   0.008060   0.000121   0.000001  -0.000000   0.000002
    24  C    0.000150  -0.003941   0.002569   0.000048  -0.000001  -0.000000
    25  C    0.000002  -0.000023   0.000003  -0.000000   0.000000  -0.000000
    26  C    0.000002   0.000076   0.000082  -0.000001   0.000000  -0.000000
    27  H   -0.000028   0.000780   0.000355   0.000101   0.000001   0.000000
    28  C    0.000000  -0.000004  -0.000001   0.000000   0.000000   0.000000
    29  H   -0.000000   0.000003  -0.000000   0.000000   0.000000   0.000000
    30  H   -0.000000  -0.000003   0.000002   0.000000  -0.000000   0.000000
    31  H    0.000000  -0.000000  -0.000000  -0.000000   0.000000  -0.000000
    32  N   -0.038392   0.261004  -0.075868   0.004928   0.000103   0.005468
    33  N    0.001876   0.006207  -0.000170   0.000002   0.000000  -0.000036
    34  N   -0.038393   0.005468   0.000103   0.004928  -0.075868   0.261005
    35  N    0.001876  -0.000036   0.000000   0.000002  -0.000170   0.006207
    36  C   -0.000013   0.000000   0.000000  -0.000000   0.000002  -0.000049
    37  H   -0.000001  -0.000000   0.000000   0.000000  -0.000000   0.000004
    38  H   -0.000001  -0.000000   0.000000   0.000000  -0.000000   0.000004
    39  H   -0.000014   0.000001   0.000000  -0.000000   0.000000  -0.000007
    40  C   -0.000013  -0.000049   0.000002  -0.000000   0.000000   0.000000
    41  H   -0.000001   0.000004  -0.000000   0.000000   0.000000  -0.000000
    42  H   -0.000001   0.000004  -0.000000   0.000000   0.000000  -0.000000
    43  H   -0.000014  -0.000007   0.000000  -0.000000   0.000000   0.000001
    44  Co   0.255142  -0.063499   0.006654   0.002102   0.006654  -0.063499
               7          8          9         10         11         12
     1  C    0.006062   0.001762   0.006062   0.006311   0.007163  -0.000694
     2  C   -0.041060   0.002926   0.000774  -0.000038   0.002276   0.000002
     3  C    0.341268  -0.037067   0.003662   0.000002  -0.000034  -0.000000
     4  C   -0.038349   0.362647  -0.038349   0.000153   0.000042   0.000001
     5  C    0.003662  -0.037067   0.341268  -0.005687   0.003139   0.000121
     6  C    0.000774   0.002926  -0.041060  -0.052098  -0.069209   0.008060
     7  H    0.572247  -0.004119  -0.000078  -0.000000  -0.000001   0.000000
     8  H   -0.004119   0.561886  -0.004119  -0.000003   0.000001  -0.000000
     9  H   -0.000078  -0.004119   0.572247   0.000437  -0.000205  -0.000045
    10  C   -0.000000  -0.000003   0.000437   4.644345  -0.064600   0.508534
    11  C   -0.000001   0.000001  -0.000205  -0.064600   4.819419  -0.055359
    12  C    0.000000  -0.000000  -0.000045   0.508534  -0.055359   4.663119
    13  C   -0.000000   0.000003  -0.000506   0.542783   0.004407  -0.057592
    14  C   -0.000000   0.000000   0.000000  -0.048640   0.004946   0.535313
    15  C   -0.000000   0.000000   0.000135  -0.005801  -0.000048  -0.037563
    16  H    0.000000  -0.000011   0.006463  -0.033062  -0.000154   0.003742
    17  C    0.000000  -0.000000   0.000001  -0.039039  -0.000058  -0.009618
    18  H    0.000000  -0.000000  -0.000000   0.003924  -0.000208  -0.037545
    19  H    0.000000   0.000000  -0.000009   0.001906   0.000003   0.000927
    20  H   -0.000000  -0.000000   0.000000   0.000893   0.000002   0.002355
    21  C    0.000437  -0.000003  -0.000000  -0.000000  -0.000007   0.000000
    22  C   -0.000205   0.000001  -0.000001  -0.000007  -0.014773  -0.000002
    23  C   -0.000045  -0.000000   0.000000   0.000000  -0.000002  -0.000000
    24  C   -0.000506   0.000003  -0.000000   0.000000   0.000000  -0.000000
    25  C    0.000000   0.000000  -0.000000  -0.000000   0.000000   0.000000
    26  C    0.000135   0.000000  -0.000000  -0.000000  -0.000000   0.000000
    27  H    0.006463  -0.000011   0.000000   0.000000   0.000000  -0.000000
    28  C    0.000001  -0.000000   0.000000   0.000000  -0.000000  -0.000000
    29  H   -0.000000  -0.000000   0.000000   0.000000   0.000000  -0.000000
    30  H   -0.000009   0.000000   0.000000   0.000000   0.000000  -0.000000
    31  H    0.000000  -0.000000  -0.000000   0.000000   0.000000   0.000000
    32  N   -0.003438  -0.000116   0.000008   0.000000   0.000299   0.000000
    33  N    0.000000  -0.000000  -0.000000  -0.000000   0.000034   0.000000
    34  N    0.000008  -0.000116  -0.003438   0.256853   0.348826  -0.038976
    35  N   -0.000000  -0.000000   0.000000  -0.046321   0.300825   0.263617
    36  C   -0.000000   0.000000  -0.000000   0.005579  -0.043322  -0.049108
    37  H    0.000000  -0.000000   0.000000  -0.000138   0.000537  -0.001146
    38  H    0.000000  -0.000000   0.000000  -0.000138   0.000531  -0.001142
    39  H    0.000000   0.000000   0.000000   0.000016   0.000459   0.002595
    40  C   -0.000000   0.000000  -0.000000   0.000000   0.000015   0.000000
    41  H    0.000000  -0.000000   0.000000  -0.000000  -0.000000  -0.000000
    42  H    0.000000  -0.000000   0.000000  -0.000000  -0.000000  -0.000000
    43  H    0.000000   0.000000   0.000000  -0.000000  -0.000003  -0.000000
    44  Co  -0.000501   0.000123  -0.000501   0.007141   0.362102   0.005257
              13         14         15         16         17         18
     1  C    0.000150   0.000002   0.000002  -0.000028   0.000000  -0.000000
     2  C   -0.000000  -0.000000  -0.000000   0.000000   0.000000   0.000000
     3  C   -0.000001   0.000000   0.000000   0.000001   0.000000   0.000000
     4  C    0.000048  -0.000000  -0.000001   0.000101   0.000000   0.000000
     5  C    0.002569   0.000003   0.000082   0.000355  -0.000001  -0.000000
     6  C   -0.003941  -0.000023   0.000076   0.000780  -0.000004   0.000003
     7  H   -0.000000  -0.000000  -0.000000   0.000000   0.000000   0.000000
     8  H    0.000003   0.000000   0.000000  -0.000011  -0.000000  -0.000000
     9  H   -0.000506   0.000000   0.000135   0.006463   0.000001  -0.000000
    10  C    0.542783  -0.048640  -0.005801  -0.033062  -0.039039   0.003924
    11  C    0.004407   0.004946  -0.000048  -0.000154  -0.000058  -0.000208
    12  C   -0.057592   0.535313  -0.037563   0.003742  -0.009618  -0.037545
    13  C    5.026359  -0.044891   0.506942   0.355024  -0.036816   0.000289
    14  C   -0.044891   5.034092  -0.036465   0.000434   0.514695   0.362204
    15  C    0.506942  -0.036465   4.895085  -0.034992   0.558866   0.003763
    16  H    0.355024   0.000434  -0.034992   0.509029   0.003631   0.000013
    17  C   -0.036816   0.514695   0.558866   0.003631   4.887863  -0.034772
    18  H    0.000289   0.362204   0.003763   0.000013  -0.034772   0.532070
    19  H   -0.035498   0.003901   0.369124  -0.003832  -0.035907  -0.000141
    20  H    0.004073  -0.036897  -0.036732  -0.000147   0.368785  -0.004100
    21  C    0.000000  -0.000000  -0.000000   0.000000   0.000000   0.000000
    22  C    0.000000   0.000000  -0.000000   0.000000  -0.000000   0.000000
    23  C   -0.000000   0.000000   0.000000  -0.000000  -0.000000  -0.000000
    24  C    0.000000  -0.000000   0.000000   0.000000   0.000000   0.000000
    25  C   -0.000000  -0.000000   0.000000  -0.000000  -0.000000   0.000000
    26  C    0.000000   0.000000  -0.000000  -0.000000  -0.000000   0.000000
    27  H    0.000000  -0.000000  -0.000000   0.000000   0.000000  -0.000000
    28  C    0.000000  -0.000000  -0.000000   0.000000   0.000000   0.000000
    29  H    0.000000   0.000000   0.000000  -0.000000   0.000000  -0.000000
    30  H   -0.000000  -0.000000   0.000000  -0.000000   0.000000   0.000000
    31  H   -0.000000   0.000000   0.000000  -0.000000   0.000000   0.000000
    32  N   -0.000000  -0.000000   0.000000   0.000000   0.000000  -0.000000
    33  N    0.000000  -0.000000  -0.000000   0.000000   0.000000  -0.000000
    34  N   -0.078761   0.009395   0.005153  -0.005214  -0.000178  -0.000096
    35  N    0.009523  -0.083218  -0.000188  -0.000095   0.005351  -0.007396
    36  C   -0.000115  -0.002865   0.000009   0.000003  -0.000113   0.004366
    37  H   -0.000009   0.002647  -0.000001  -0.000000  -0.000005   0.000531
    38  H   -0.000009   0.002645  -0.000001  -0.000000  -0.000005   0.000530
    39  H    0.000005   0.000013  -0.000000  -0.000000   0.000001  -0.000033
    40  C    0.000000   0.000000  -0.000000   0.000000   0.000000  -0.000000
    41  H   -0.000000  -0.000000   0.000000   0.000000   0.000000  -0.000000
    42  H   -0.000000  -0.000000   0.000000   0.000000   0.000000  -0.000000
    43  H    0.000000   0.000000  -0.000000   0.000000  -0.000000   0.000000
    44  Co  -0.001248  -0.001404   0.000164   0.000043   0.000144   0.000024
              19         20         21         22         23         24
     1  C   -0.000000   0.000000   0.006311   0.007163  -0.000694   0.000150
     2  C    0.000000  -0.000000  -0.052098  -0.069209   0.008060  -0.003941
     3  C   -0.000000   0.000000  -0.005687   0.003139   0.000121   0.002569
     4  C    0.000000  -0.000000   0.000153   0.000042   0.000001   0.000048
     5  C    0.000002  -0.000000   0.000002  -0.000034  -0.000000  -0.000001
     6  C   -0.000003  -0.000000  -0.000038   0.002276   0.000002  -0.000000
     7  H    0.000000  -0.000000   0.000437  -0.000205  -0.000045  -0.000506
     8  H    0.000000  -0.000000  -0.000003   0.000001  -0.000000   0.000003
     9  H   -0.000009   0.000000  -0.000000  -0.000001   0.000000  -0.000000
    10  C    0.001906   0.000893  -0.000000  -0.000007   0.000000   0.000000
    11  C    0.000003   0.000002  -0.000007  -0.014773  -0.000002   0.000000
    12  C    0.000927   0.002355   0.000000  -0.000002  -0.000000  -0.000000
    13  C   -0.035498   0.004073   0.000000   0.000000  -0.000000   0.000000
    14  C    0.003901  -0.036897  -0.000000   0.000000   0.000000  -0.000000
    15  C    0.369124  -0.036732  -0.000000  -0.000000   0.000000   0.000000
    16  H   -0.003832  -0.000147   0.000000   0.000000  -0.000000   0.000000
    17  C   -0.035907   0.368785   0.000000  -0.000000  -0.000000   0.000000
    18  H   -0.000141  -0.004100   0.000000   0.000000  -0.000000   0.000000
    19  H    0.529872  -0.004653   0.000000   0.000000  -0.000000  -0.000000
    20  H   -0.004653   0.535649   0.000000   0.000000   0.000000  -0.000000
    21  C    0.000000   0.000000   4.644362  -0.064602   0.508534   0.542780
    22  C    0.000000   0.000000  -0.064602   4.819420  -0.055358   0.004407
    23  C   -0.000000   0.000000   0.508534  -0.055358   4.663102  -0.057590
    24  C   -0.000000  -0.000000   0.542780   0.004407  -0.057590   5.026345
    25  C   -0.000000   0.000000  -0.048642   0.004947   0.535317  -0.044891
    26  C    0.000000   0.000000  -0.005802  -0.000048  -0.037563   0.506947
    27  H   -0.000000  -0.000000  -0.033063  -0.000154   0.003742   0.355025
    28  C    0.000000   0.000000  -0.039039  -0.000058  -0.009617  -0.036816
    29  H    0.000000   0.000000   0.003924  -0.000208  -0.037544   0.000289
    30  H    0.000000   0.000000   0.001906   0.000003   0.000927  -0.035499
    31  H    0.000000   0.000000   0.000893   0.000002   0.002355   0.004073
    32  N    0.000000   0.000000   0.256855   0.348826  -0.038977  -0.078759
    33  N   -0.000000  -0.000000  -0.046321   0.300823   0.263616   0.009523
    34  N   -0.000093   0.000003   0.000000   0.000299   0.000000  -0.000000
    35  N    0.000004  -0.000101  -0.000000   0.000034   0.000000   0.000000
    36  C   -0.000000  -0.000002   0.000000   0.000015   0.000000   0.000000
    37  H   -0.000000  -0.000000  -0.000000  -0.000000  -0.000000  -0.000000
    38  H   -0.000000  -0.000000  -0.000000  -0.000000  -0.000000  -0.000000
    39  H   -0.000000  -0.000000  -0.000000  -0.000003  -0.000000   0.000000
    40  C    0.000000  -0.000000   0.005579  -0.043322  -0.049108  -0.000115
    41  H   -0.000000   0.000000  -0.000138   0.000531  -0.001141  -0.000009
    42  H   -0.000000   0.000000  -0.000138   0.000538  -0.001146  -0.000009
    43  H   -0.000000   0.000000   0.000016   0.000459   0.002595   0.000005
    44  Co   0.000015  -0.000009   0.007141   0.362101   0.005257  -0.001248
              25         26         27         28         29         30
     1  C    0.000002   0.000002  -0.000028   0.000000  -0.000000  -0.000000
     2  C   -0.000023   0.000076   0.000780  -0.000004   0.000003  -0.000003
     3  C    0.000003   0.000082   0.000355  -0.000001  -0.000000   0.000002
     4  C   -0.000000  -0.000001   0.000101   0.000000   0.000000   0.000000
     5  C    0.000000   0.000000   0.000001   0.000000   0.000000  -0.000000
     6  C   -0.000000  -0.000000   0.000000   0.000000   0.000000   0.000000
     7  H    0.000000   0.000135   0.006463   0.000001  -0.000000  -0.000009
     8  H    0.000000   0.000000  -0.000011  -0.000000  -0.000000   0.000000
     9  H   -0.000000  -0.000000   0.000000   0.000000   0.000000   0.000000
    10  C   -0.000000  -0.000000   0.000000   0.000000   0.000000   0.000000
    11  C    0.000000  -0.000000   0.000000  -0.000000   0.000000   0.000000
    12  C    0.000000   0.000000  -0.000000  -0.000000  -0.000000  -0.000000
    13  C   -0.000000   0.000000   0.000000   0.000000   0.000000  -0.000000
    14  C   -0.000000   0.000000  -0.000000  -0.000000   0.000000  -0.000000
    15  C    0.000000  -0.000000  -0.000000  -0.000000   0.000000   0.000000
    16  H   -0.000000  -0.000000   0.000000   0.000000  -0.000000  -0.000000
    17  C   -0.000000  -0.000000   0.000000   0.000000   0.000000   0.000000
    18  H    0.000000   0.000000  -0.000000   0.000000  -0.000000   0.000000
    19  H   -0.000000   0.000000  -0.000000   0.000000   0.000000   0.000000
    20  H    0.000000   0.000000  -0.000000   0.000000   0.000000   0.000000
    21  C   -0.048642  -0.005802  -0.033063  -0.039039   0.003924   0.001906
    22  C    0.004947  -0.000048  -0.000154  -0.000058  -0.000208   0.000003
    23  C    0.535317  -0.037563   0.003742  -0.009617  -0.037544   0.000927
    24  C   -0.044891   0.506947   0.355025  -0.036816   0.000289  -0.035499
    25  C    5.034104  -0.036465   0.000434   0.514690   0.362204   0.003901
    26  C   -0.036465   4.895080  -0.034992   0.558867   0.003763   0.369123
    27  H    0.000434  -0.034992   0.509030   0.003631   0.000013  -0.003832
    28  C    0.514690   0.558867   0.003631   4.887867  -0.034771  -0.035907
    29  H    0.362204   0.003763   0.000013  -0.034771   0.532069  -0.000141
    30  H    0.003901   0.369123  -0.003832  -0.035907  -0.000141   0.529875
    31  H   -0.036896  -0.036732  -0.000147   0.368786  -0.004100  -0.004653
    32  N    0.009396   0.005153  -0.005214  -0.000178  -0.000096  -0.000093
    33  N   -0.083221  -0.000188  -0.000095   0.005350  -0.007397   0.000004
    34  N   -0.000000   0.000000   0.000000   0.000000  -0.000000   0.000000
    35  N   -0.000000  -0.000000   0.000000   0.000000  -0.000000  -0.000000
    36  C    0.000000  -0.000000   0.000000   0.000000  -0.000000   0.000000
    37  H   -0.000000   0.000000   0.000000   0.000000  -0.000000  -0.000000
    38  H   -0.000000   0.000000   0.000000   0.000000  -0.000000  -0.000000
    39  H    0.000000  -0.000000   0.000000  -0.000000   0.000000  -0.000000
    40  C   -0.002865   0.000009   0.000003  -0.000113   0.004366  -0.000000
    41  H    0.002645  -0.000001  -0.000000  -0.000005   0.000530  -0.000000
    42  H    0.002647  -0.000001  -0.000000  -0.000005   0.000531  -0.000000
    43  H    0.000013  -0.000000  -0.000000   0.000001  -0.000033  -0.000000
    44  Co  -0.001404   0.000164   0.000043   0.000144   0.000024   0.000015
              31         32         33         34         35         36
     1  C    0.000000  -0.038392   0.001876  -0.038393   0.001876  -0.000013
     2  C   -0.000000   0.261004   0.006207   0.005468  -0.000036   0.000000
     3  C   -0.000000  -0.075868  -0.000170   0.000103   0.000000   0.000000
     4  C   -0.000000   0.004928   0.000002   0.004928   0.000002  -0.000000
     5  C    0.000000   0.000103   0.000000  -0.075868  -0.000170   0.000002
     6  C   -0.000000   0.005468  -0.000036   0.261005   0.006207  -0.000049
     7  H    0.000000  -0.003438   0.000000   0.000008  -0.000000  -0.000000
     8  H   -0.000000  -0.000116  -0.000000  -0.000116  -0.000000   0.000000
     9  H   -0.000000   0.000008  -0.000000  -0.003438   0.000000  -0.000000
    10  C    0.000000   0.000000  -0.000000   0.256853  -0.046321   0.005579
    11  C    0.000000   0.000299   0.000034   0.348826   0.300825  -0.043322
    12  C    0.000000   0.000000   0.000000  -0.038976   0.263617  -0.049108
    13  C   -0.000000  -0.000000   0.000000  -0.078761   0.009523  -0.000115
    14  C    0.000000  -0.000000  -0.000000   0.009395  -0.083218  -0.002865
    15  C    0.000000   0.000000  -0.000000   0.005153  -0.000188   0.000009
    16  H   -0.000000   0.000000   0.000000  -0.005214  -0.000095   0.000003
    17  C    0.000000   0.000000   0.000000  -0.000178   0.005351  -0.000113
    18  H    0.000000  -0.000000  -0.000000  -0.000096  -0.007396   0.004366
    19  H    0.000000   0.000000  -0.000000  -0.000093   0.000004  -0.000000
    20  H    0.000000   0.000000  -0.000000   0.000003  -0.000101  -0.000002
    21  C    0.000893   0.256855  -0.046321   0.000000  -0.000000   0.000000
    22  C    0.000002   0.348826   0.300823   0.000299   0.000034   0.000015
    23  C    0.002355  -0.038977   0.263616   0.000000   0.000000   0.000000
    24  C    0.004073  -0.078759   0.009523  -0.000000   0.000000   0.000000
    25  C   -0.036896   0.009396  -0.083221  -0.000000  -0.000000   0.000000
    26  C   -0.036732   0.005153  -0.000188   0.000000  -0.000000  -0.000000
    27  H   -0.000147  -0.005214  -0.000095   0.000000   0.000000   0.000000
    28  C    0.368786  -0.000178   0.005350   0.000000   0.000000   0.000000
    29  H   -0.004100  -0.000096  -0.007397  -0.000000  -0.000000  -0.000000
    30  H   -0.004653  -0.000093   0.000004   0.000000  -0.000000   0.000000
    31  H    0.535646   0.000003  -0.000101   0.000000  -0.000000  -0.000000
    32  N    0.000003   7.189085  -0.060609  -0.000060   0.000000   0.000000
    33  N   -0.000101  -0.060609   7.062139   0.000000  -0.000000  -0.000000
    34  N    0.000000  -0.000060   0.000000   7.189093  -0.060609   0.004471
    35  N   -0.000000   0.000000  -0.000000  -0.060609   7.062131   0.300886
    36  C   -0.000000   0.000000  -0.000000   0.004471   0.300886   5.061444
    37  H    0.000000   0.000000   0.000000  -0.000064  -0.042042   0.377112
    38  H    0.000000   0.000000   0.000000  -0.000064  -0.042043   0.377118
    39  H    0.000000  -0.000000   0.000001   0.000158  -0.031747   0.376115
    40  C   -0.000002   0.004471   0.300886   0.000000  -0.000000   0.000000
    41  H   -0.000000  -0.000064  -0.042043   0.000000   0.000000  -0.000000
    42  H   -0.000000  -0.000064  -0.042042   0.000000   0.000000  -0.000000
    43  H   -0.000000   0.000158  -0.031747  -0.000000   0.000001  -0.000001
    44  Co  -0.000009  -0.072246  -0.054778  -0.072247  -0.054779  -0.006227
              37         38         39         40         41         42
     1  C   -0.000001  -0.000001  -0.000014  -0.000013  -0.000001  -0.000001
     2  C   -0.000000  -0.000000   0.000001  -0.000049   0.000004   0.000004
     3  C    0.000000   0.000000   0.000000   0.000002  -0.000000  -0.000000
     4  C    0.000000   0.000000  -0.000000  -0.000000   0.000000   0.000000
     5  C   -0.000000  -0.000000   0.000000   0.000000   0.000000   0.000000
     6  C    0.000004   0.000004  -0.000007   0.000000  -0.000000  -0.000000
     7  H    0.000000   0.000000   0.000000  -0.000000   0.000000   0.000000
     8  H   -0.000000  -0.000000   0.000000   0.000000  -0.000000  -0.000000
     9  H    0.000000   0.000000   0.000000  -0.000000   0.000000   0.000000
    10  C   -0.000138  -0.000138   0.000016   0.000000  -0.000000  -0.000000
    11  C    0.000537   0.000531   0.000459   0.000015  -0.000000  -0.000000
    12  C   -0.001146  -0.001142   0.002595   0.000000  -0.000000  -0.000000
    13  C   -0.000009  -0.000009   0.000005   0.000000  -0.000000  -0.000000
    14  C    0.002647   0.002645   0.000013   0.000000  -0.000000  -0.000000
    15  C   -0.000001  -0.000001  -0.000000  -0.000000   0.000000   0.000000
    16  H   -0.000000  -0.000000  -0.000000   0.000000   0.000000   0.000000
    17  C   -0.000005  -0.000005   0.000001   0.000000   0.000000   0.000000
    18  H    0.000531   0.000530  -0.000033  -0.000000  -0.000000  -0.000000
    19  H   -0.000000  -0.000000  -0.000000   0.000000  -0.000000  -0.000000
    20  H   -0.000000  -0.000000  -0.000000  -0.000000   0.000000   0.000000
    21  C   -0.000000  -0.000000  -0.000000   0.005579  -0.000138  -0.000138
    22  C   -0.000000  -0.000000  -0.000003  -0.043322   0.000531   0.000538
    23  C   -0.000000  -0.000000  -0.000000  -0.049108  -0.001141  -0.001146
    24  C   -0.000000  -0.000000   0.000000  -0.000115  -0.000009  -0.000009
    25  C   -0.000000  -0.000000   0.000000  -0.002865   0.002645   0.002647
    26  C    0.000000   0.000000  -0.000000   0.000009  -0.000001  -0.000001
    27  H    0.000000   0.000000   0.000000   0.000003  -0.000000  -0.000000
    28  C    0.000000   0.000000  -0.000000  -0.000113  -0.000005  -0.000005
    29  H   -0.000000  -0.000000   0.000000   0.004366   0.000530   0.000531
    30  H   -0.000000  -0.000000  -0.000000  -0.000000  -0.000000  -0.000000
    31  H    0.000000   0.000000   0.000000  -0.000002  -0.000000  -0.000000
    32  N    0.000000   0.000000  -0.000000   0.004471  -0.000064  -0.000064
    33  N    0.000000   0.000000   0.000001   0.300886  -0.042043  -0.042042
    34  N   -0.000064  -0.000064   0.000158   0.000000   0.000000   0.000000
    35  N   -0.042042  -0.042043  -0.031747  -0.000000   0.000000   0.000000
    36  C    0.377112   0.377118   0.376115   0.000000  -0.000000  -0.000000
    37  H    0.525623  -0.039970  -0.025605  -0.000000   0.000000  -0.000000
    38  H   -0.039970   0.525617  -0.025611  -0.000000  -0.000000   0.000000
    39  H   -0.025605  -0.025611   0.470465  -0.000001   0.000000   0.000000
    40  C   -0.000000  -0.000000  -0.000001   5.061443   0.377119   0.377112
    41  H    0.000000  -0.000000   0.000000   0.377119   0.525618  -0.039970
    42  H   -0.000000   0.000000   0.000000   0.377112  -0.039970   0.525624
    43  H    0.000000   0.000000  -0.000024   0.376115  -0.025612  -0.025604
    44  Co   0.000534   0.000537   0.008164  -0.006227   0.000538   0.000534
              43         44
     1  C   -0.000014   0.255142
     2  C   -0.000007  -0.063499
     3  C    0.000000   0.006654
     4  C   -0.000000   0.002102
     5  C    0.000000   0.006654
     6  C    0.000001  -0.063499
     7  H    0.000000  -0.000501
     8  H    0.000000   0.000123
     9  H    0.000000  -0.000501
    10  C   -0.000000   0.007141
    11  C   -0.000003   0.362102
    12  C   -0.000000   0.005257
    13  C    0.000000  -0.001248
    14  C    0.000000  -0.001404
    15  C   -0.000000   0.000164
    16  H    0.000000   0.000043
    17  C   -0.000000   0.000144
    18  H    0.000000   0.000024
    19  H   -0.000000   0.000015
    20  H    0.000000  -0.000009
    21  C    0.000016   0.007141
    22  C    0.000459   0.362101
    23  C    0.002595   0.005257
    24  C    0.000005  -0.001248
    25  C    0.000013  -0.001404
    26  C   -0.000000   0.000164
    27  H   -0.000000   0.000043
    28  C    0.000001   0.000144
    29  H   -0.000033   0.000024
    30  H   -0.000000   0.000015
    31  H   -0.000000  -0.000009
    32  N    0.000158  -0.072246
    33  N   -0.031747  -0.054778
    34  N   -0.000000  -0.072247
    35  N    0.000001  -0.054779
    36  C   -0.000001  -0.006227
    37  H    0.000000   0.000534
    38  H    0.000000   0.000537
    39  H   -0.000024   0.008164
    40  C    0.376115  -0.006227
    41  H   -0.025612   0.000538
    42  H   -0.025604   0.000534
    43  H    0.470466   0.008164
    44  Co   0.008164  16.463342
          Atomic-Atomic Spin Densities.
               1          2          3          4          5          6
     1  C    0.000016  -0.000001  -0.000000  -0.000000  -0.000000  -0.000001
     2  C   -0.000001  -0.000001   0.000000   0.000000   0.000000  -0.000000
     3  C   -0.000000   0.000000   0.000001  -0.000000  -0.000000   0.000000
     4  C   -0.000000   0.000000  -0.000000   0.000000  -0.000000   0.000000
     5  C   -0.000000   0.000000  -0.000000  -0.000000   0.000001   0.000000
     6  C   -0.000001  -0.000000   0.000000   0.000000   0.000000  -0.000001
     7  H    0.000000  -0.000000  -0.000000  -0.000000   0.000000  -0.000000
     8  H    0.000000  -0.000000   0.000000   0.000000   0.000000  -0.000000
     9  H    0.000000  -0.000000   0.000000  -0.000000  -0.000000  -0.000000
    10  C    0.000000  -0.000000  -0.000000   0.000000   0.000000   0.000000
    11  C   -0.000000   0.000000  -0.000000   0.000000  -0.000000  -0.000000
    12  C   -0.000000  -0.000000   0.000000   0.000000   0.000000   0.000000
    13  C    0.000000   0.000000  -0.000000   0.000000   0.000000   0.000000
    14  C    0.000000   0.000000  -0.000000   0.000000   0.000000   0.000000
    15  C    0.000000   0.000000  -0.000000   0.000000  -0.000000  -0.000000
    16  H   -0.000000  -0.000000   0.000000  -0.000000   0.000000  -0.000000
    17  C   -0.000000  -0.000000   0.000000   0.000000   0.000000   0.000000
    18  H   -0.000000   0.000000   0.000000  -0.000000  -0.000000   0.000000
    19  H   -0.000000  -0.000000   0.000000  -0.000000   0.000000   0.000000
    20  H    0.000000  -0.000000  -0.000000   0.000000   0.000000   0.000000
    21  C    0.000000   0.000000   0.000000   0.000000  -0.000000  -0.000000
    22  C   -0.000000  -0.000000  -0.000000   0.000000  -0.000000   0.000000
    23  C   -0.000000   0.000000   0.000000   0.000000   0.000000  -0.000000
    24  C    0.000000   0.000000   0.000000   0.000000  -0.000000   0.000000
    25  C    0.000000   0.000000   0.000000   0.000000  -0.000000   0.000000
    26  C    0.000000  -0.000000  -0.000000   0.000000  -0.000000   0.000000
    27  H   -0.000000  -0.000000   0.000000  -0.000000   0.000000  -0.000000
    28  C   -0.000000   0.000000   0.000000   0.000000   0.000000  -0.000000
    29  H   -0.000000   0.000000  -0.000000  -0.000000   0.000000   0.000000
    30  H   -0.000000   0.000000   0.000000  -0.000000   0.000000  -0.000000
    31  H    0.000000   0.000000   0.000000   0.000000  -0.000000  -0.000000
    32  N    0.000000   0.000000  -0.000000  -0.000000   0.000000  -0.000000
    33  N    0.000000  -0.000000   0.000000   0.000000  -0.000000  -0.000000
    34  N    0.000000  -0.000000   0.000000  -0.000000  -0.000000   0.000000
    35  N    0.000000  -0.000000  -0.000000   0.000000   0.000000  -0.000000
    36  C    0.000000  -0.000000  -0.000000   0.000000  -0.000000  -0.000000
    37  H   -0.000000   0.000000  -0.000000  -0.000000  -0.000000  -0.000000
    38  H    0.000000   0.000000   0.000000  -0.000000   0.000000   0.000000
    39  H   -0.000000  -0.000000   0.000000  -0.000000  -0.000000   0.000000
    40  C    0.000000  -0.000000  -0.000000   0.000000  -0.000000  -0.000000
    41  H    0.000000   0.000000   0.000000  -0.000000   0.000000   0.000000
    42  H   -0.000000  -0.000000  -0.000000  -0.000000  -0.000000   0.000000
    43  H   -0.000000   0.000000  -0.000000  -0.000000   0.000000  -0.000000
    44  Co  -0.000003   0.000000  -0.000000  -0.000000  -0.000000   0.000000
               7          8          9         10         11         12
     1  C    0.000000   0.000000   0.000000   0.000000  -0.000000  -0.000000
     2  C   -0.000000  -0.000000  -0.000000  -0.000000   0.000000  -0.000000
     3  C   -0.000000   0.000000   0.000000  -0.000000  -0.000000   0.000000
     4  C   -0.000000   0.000000  -0.000000   0.000000   0.000000   0.000000
     5  C    0.000000   0.000000  -0.000000   0.000000  -0.000000   0.000000
     6  C   -0.000000  -0.000000  -0.000000   0.000000  -0.000000   0.000000
     7  H    0.000000  -0.000000   0.000000  -0.000000   0.000000  -0.000000
     8  H   -0.000000  -0.000000  -0.000000  -0.000000   0.000000  -0.000000
     9  H    0.000000  -0.000000   0.000000  -0.000000   0.000000  -0.000000
    10  C   -0.000000  -0.000000  -0.000000  -0.000000   0.000000  -0.000000
    11  C    0.000000   0.000000   0.000000   0.000000   0.000004   0.000000
    12  C   -0.000000  -0.000000  -0.000000  -0.000000   0.000000  -0.000000
    13  C   -0.000000   0.000000  -0.000000   0.000000   0.000000   0.000000
    14  C   -0.000000  -0.000000  -0.000000  -0.000000  -0.000000  -0.000000
    15  C    0.000000   0.000000  -0.000000  -0.000000  -0.000000   0.000000
    16  H   -0.000000  -0.000000  -0.000000  -0.000000   0.000000  -0.000000
    17  C   -0.000000  -0.000000  -0.000000   0.000000   0.000000  -0.000000
    18  H    0.000000   0.000000   0.000000   0.000000   0.000000  -0.000000
    19  H   -0.000000  -0.000000  -0.000000   0.000000   0.000000  -0.000000
    20  H   -0.000000  -0.000000  -0.000000  -0.000000  -0.000000   0.000000
    21  C   -0.000000  -0.000000  -0.000000  -0.000000   0.000000  -0.000000
    22  C    0.000000   0.000000   0.000000   0.000000   0.000000   0.000000
    23  C   -0.000000  -0.000000  -0.000000  -0.000000   0.000000   0.000000
    24  C   -0.000000   0.000000  -0.000000   0.000000  -0.000000  -0.000000
    25  C   -0.000000  -0.000000  -0.000000   0.000000  -0.000000  -0.000000
    26  C   -0.000000   0.000000   0.000000   0.000000   0.000000   0.000000
    27  H   -0.000000  -0.000000  -0.000000  -0.000000   0.000000  -0.000000
    28  C   -0.000000  -0.000000  -0.000000  -0.000000   0.000000   0.000000
    29  H    0.000000   0.000000   0.000000  -0.000000   0.000000   0.000000
    30  H   -0.000000  -0.000000  -0.000000  -0.000000  -0.000000   0.000000
    31  H   -0.000000  -0.000000  -0.000000   0.000000  -0.000000  -0.000000
    32  N    0.000000  -0.000000  -0.000000  -0.000000   0.000000   0.000000
    33  N   -0.000000  -0.000000  -0.000000   0.000000  -0.000000  -0.000000
    34  N   -0.000000  -0.000000   0.000000  -0.000000  -0.000000   0.000000
    35  N   -0.000000  -0.000000  -0.000000   0.000000  -0.000002  -0.000000
    36  C   -0.000000   0.000000   0.000000   0.000000  -0.000000   0.000000
    37  H    0.000000   0.000000   0.000000   0.000000   0.000000   0.000000
    38  H   -0.000000  -0.000000  -0.000000   0.000000   0.000000  -0.000000
    39  H    0.000000  -0.000000   0.000000  -0.000000   0.000000   0.000000
    40  C    0.000000   0.000000  -0.000000   0.000000  -0.000000  -0.000000
    41  H   -0.000000  -0.000000  -0.000000  -0.000000  -0.000000  -0.000000
    42  H    0.000000   0.000000   0.000000  -0.000000   0.000000   0.000000
    43  H    0.000000  -0.000000   0.000000  -0.000000   0.000000   0.000000
    44  Co   0.000000   0.000000   0.000000   0.000000   0.000003   0.000000
              13         14         15         16         17         18
     1  C    0.000000   0.000000   0.000000  -0.000000  -0.000000  -0.000000
     2  C    0.000000   0.000000   0.000000  -0.000000  -0.000000   0.000000
     3  C   -0.000000  -0.000000  -0.000000   0.000000   0.000000   0.000000
     4  C    0.000000   0.000000   0.000000  -0.000000   0.000000  -0.000000
     5  C    0.000000   0.000000  -0.000000   0.000000   0.000000  -0.000000
     6  C    0.000000   0.000000  -0.000000  -0.000000   0.000000   0.000000
     7  H   -0.000000  -0.000000   0.000000  -0.000000  -0.000000   0.000000
     8  H    0.000000  -0.000000   0.000000  -0.000000  -0.000000   0.000000
     9  H   -0.000000  -0.000000  -0.000000  -0.000000  -0.000000   0.000000
    10  C    0.000000  -0.000000  -0.000000  -0.000000   0.000000   0.000000
    11  C    0.000000  -0.000000  -0.000000   0.000000   0.000000   0.000000
    12  C    0.000000  -0.000000   0.000000  -0.000000  -0.000000  -0.000000
    13  C    0.000000   0.000000  -0.000000  -0.000000  -0.000000  -0.000000
    14  C    0.000000   0.000001  -0.000000  -0.000000  -0.000000  -0.000000
    15  C   -0.000000  -0.000000   0.000000   0.000000   0.000000  -0.000000
[...]
    40 C(13)  Bbb    -0.0000    -0.000    -0.000    -0.000  0.4524  0.8913 -0.0312
              Bcc     0.0000     0.000     0.000     0.000  0.8880 -0.4470  0.1075
 
              Baa    -0.0000    -0.000    -0.000    -0.000  0.5861  0.4905  0.6449
    41 H(1)   Bbb     0.0000     0.000     0.000     0.000  0.8070 -0.4250 -0.4101
              Bcc     0.0000     0.000     0.000     0.000  0.0729  0.7608 -0.6449
 
              Baa    -0.0000    -0.000    -0.000    -0.000  0.8258  0.3794 -0.4173
    42 H(1)   Bbb     0.0000     0.000     0.000     0.000 -0.5619  0.6168 -0.5513
              Bcc     0.0000     0.000     0.000     0.000  0.0483  0.6897  0.7225
 
              Baa    -0.0000    -0.000    -0.000    -0.000  0.5360  0.8044 -0.2562
    43 H(1)   Bbb     0.0000     0.000     0.000     0.000 -0.0085  0.3086  0.9512
              Bcc     0.0000     0.000     0.000     0.000  0.8442 -0.5077  0.1722
 
              Baa    -0.0003    -0.036    -0.013    -0.012 -0.0000  0.8552  0.5183
    44 Co(59) Bbb    -0.0001    -0.013    -0.005    -0.004  0.0000 -0.5183  0.8552
              Bcc     0.0004     0.049     0.017     0.016  1.0000  0.0000 -0.0000
 

 ---------------------------------------------------------------------------------

   1 Symmetry operations used in ECPInt.
 ECPInt:  NShTT=   11781 NPrTT=   71406 LenC2=    9530 LenP2D=   32074.
 LDataN:  DoStor=T MaxTD1= 7 Len=  274
 Calling FoFJK, ICntrl=      2127 FMM=F ISym2X=0 I1Cent= 0 IOpClX= 1 NMat=1 NMatS=1 NMatT=0.
 -------------------------------------------------------------------
 Center     Atomic                   Forces (Hartrees/Bohr)
 Number     Number              X              Y              Z
 -------------------------------------------------------------------
      1        6          -0.000002971   -0.081826863   -0.000006933
      2        6           0.111353668    0.058139463    0.000003823
      3        6           0.003553449    0.009255251    0.000001502
      4        6           0.000002868    0.011460592   -0.000002126
      5        6          -0.003557947    0.009253754    0.000000679
      6        6          -0.111352433    0.058142360    0.000002801
      7        1           0.001353966    0.005301603   -0.000000693
      8        1          -0.000000254   -0.000183913    0.000000045
      9        1          -0.001352582    0.005302667   -0.000000774
     10        6          -0.013463680   -0.012442825    0.000000710
     11        6           0.011476244    0.006476448   -0.000019689
     12        6           0.019161022    0.007952285   -0.000002795
     13        6           0.017389274    0.006657512   -0.000001473
     14        6           0.003972778    0.009260356   -0.000001090
     15        6          -0.018134899    0.010571536    0.000001994
     16        1           0.000983117   -0.000265503   -0.000000414
     17        6          -0.001257843   -0.018830970    0.000000451
     18        1           0.001082653    0.000461312    0.000000316
     19        1           0.001404748    0.000258649   -0.000000403
     20        1           0.001838164   -0.000331910   -0.000000051
     21        6           0.013446586   -0.012427918   -0.000000821
     22        6          -0.011478833    0.006473332   -0.000024162
     23        6          -0.019141858    0.007950228   -0.000001388
     24        6          -0.017373563    0.006643041   -0.000000799
     25        6          -0.003992535    0.009263265   -0.000001082
     26        6           0.018124590    0.010577021    0.000000728
     27        1          -0.000983125   -0.000262552   -0.000000203
     28        6           0.001267784   -0.018837844    0.000000148
     29        1          -0.001081132    0.000462392   -0.000000034
     30        1          -0.001402298    0.000255765   -0.000000244
     31        1          -0.001841173   -0.000332110    0.000000150
     32        7          -0.044808644   -0.093497703    0.000009398
     33        7           0.037455583    0.031304195    0.000013950
     34        7           0.044816387   -0.093497631    0.000005043
     35        7          -0.037455976    0.031300533    0.000013845
     36        6           0.000624352   -0.018252909   -0.000002689
     37        1           0.000854872    0.001962998    0.001757105
     38        1           0.000853346    0.001966721   -0.001758815
     39        1           0.000886173    0.004227449    0.000002111
     40        6          -0.000624196   -0.018253588   -0.000002512
     41        1          -0.000853309    0.001966365   -0.001758808
     42        1          -0.000855025    0.001962885    0.001757050
     43        1          -0.000886435    0.004227617    0.000002582
     44       27          -0.000000913    0.050206644    0.000013565
 -------------------------------------------------------------------
 Cartesian Forces:  Max     0.111353668 RMS     0.023443809

 GradGradGradGradGradGradGradGradGradGradGradGradGradGradGradGradGradGrad
 Berny optimization.
 Search for a local minimum.
 Step number   1 out of a maximum of    2
 All quantities printed in internal units (Hartrees-Bohrs-Radians)
 Second derivative matrix not updated -- first step.
 ITU=  0
     Eigenvalues ---    0.00057   0.00058   0.00202   0.00249   0.00253
     Eigenvalues ---    0.00392   0.00455   0.00622   0.00675   0.00704
     Eigenvalues ---    0.00720   0.00833   0.00846   0.01329   0.01596
     Eigenvalues ---    0.01810   0.02038   0.02070   0.02546   0.02546
     Eigenvalues ---    0.03121   0.03170   0.04140   0.04243   0.04483
     Eigenvalues ---    0.04536   0.04718   0.05410   0.05571   0.06299
     Eigenvalues ---    0.06325   0.06876   0.06921   0.07020   0.07078
     Eigenvalues ---    0.07082   0.07195   0.07695   0.07749   0.09607
     Eigenvalues ---    0.10074   0.10291   0.10379   0.11632   0.11911
     Eigenvalues ---    0.11960   0.12354   0.12361   0.12865   0.13335
     Eigenvalues ---    0.13351   0.13418   0.13655   0.14829   0.15522
     Eigenvalues ---    0.15834   0.15897   0.19705   0.20269   0.20607
     Eigenvalues ---    0.21055   0.21905   0.24138   0.25213   0.28701
     Eigenvalues ---    0.29452   0.30206   0.30282   0.31099   0.31943
     Eigenvalues ---    0.32214   0.35025   0.36560   0.37104   0.38232
     Eigenvalues ---    0.38566   0.41433   0.41988   0.44861   0.48183
     Eigenvalues ---    0.48418   0.48925   0.49335   0.51259   0.53081
     Eigenvalues ---    0.53748   0.57211   0.58508   0.63815   0.69452
     Eigenvalues ---    0.71368   0.73170   0.73424   0.73802   0.87592
     Eigenvalues ---    0.89578   0.90829   0.91130   0.92614   0.94170
     Eigenvalues ---    0.95447   0.96936   0.99275   1.03488   1.11279
     Eigenvalues ---    1.15451   1.16306   1.18494   1.19815   1.23810
     Eigenvalues ---    1.29422   1.37198   1.37235   1.44179   1.47479
     Eigenvalues ---    1.50338   1.51461   1.51818   1.62501   1.65278
     Eigenvalues ---    1.66352   1.66862   1.79839   1.80706   1.99000
     Eigenvalues ---    2.00165
 Quadratic step=7.109D-01 exceeds max=3.000D-01 adjusted using Lamda=-9.534D-02.
 Angle between NR and scaled steps=  45.70 degrees.
 Angle between quadratic step and forces=  39.81 degrees.
 Linear search not attempted -- first point.
 B after Tr=    -0.000000   -0.001178   -0.000000
         Rot=    1.000000   -0.000000   -0.000000    0.000000 Ang=  -0.00 deg.
 Variable       Old X    -DE/DX   Delta X   Delta X   Delta X     New X
                                 (Linear)    (Quad)   (Total)
    X1        0.00001  -0.00000   0.00000  -0.00000  -0.00000   0.00000
    Y1        1.49832  -0.08183   0.00000  -0.13869  -0.13987   1.35845
    Z1        0.00020  -0.00001   0.00000  -0.00002  -0.00002   0.00018
    X2       -2.46910   0.11135   0.00000   0.11685   0.11685  -2.35226
    Y2        2.55326   0.05814   0.00000  -0.00569  -0.00687   2.54639
    Z2        0.00007   0.00000   0.00000   0.00001   0.00001   0.00008
    X3       -2.38946   0.00355   0.00000   0.04451   0.04451  -2.34495
    Y3        5.17902   0.00926   0.00000   0.02100   0.01982   5.19884
    Z3       -0.00002   0.00000   0.00000   0.00001   0.00001  -0.00001
    X4       -0.00000   0.00000   0.00000   0.00000   0.00000   0.00000
    Y4        6.35841   0.01146   0.00000   0.06139   0.06021   6.41862
    Z4        0.00002  -0.00000   0.00000  -0.00001  -0.00001   0.00002
    X5        2.38947  -0.00356   0.00000  -0.04451  -0.04451   2.34495
    Y5        5.17902   0.00925   0.00000   0.02100   0.01982   5.19884
    Z5        0.00008   0.00000   0.00000   0.00001   0.00001   0.00008
    X6        2.46911  -0.11135   0.00000  -0.11685  -0.11685   2.35226
    Y6        2.55326   0.05814   0.00000  -0.00569  -0.00687   2.54639
    Z6        0.00014   0.00000   0.00000   0.00001   0.00001   0.00014
    X7       -4.09983   0.00135   0.00000   0.02827   0.02827  -4.07157
    Y7        6.30688   0.00530   0.00000   0.01356   0.01238   6.31926
    Z7       -0.00009  -0.00000   0.00000  -0.00000   0.00000  -0.00008
    X8        0.00000  -0.00000   0.00000   0.00000   0.00000   0.00000
    Y8        8.41506  -0.00018   0.00000   0.04796   0.04678   8.46184
    Z8       -0.00002   0.00000   0.00000  -0.00001  -0.00000  -0.00002
    X9        4.09983  -0.00135   0.00000  -0.02827  -0.02827   4.07157
    Y9        6.30688   0.00530   0.00000   0.01356   0.01238   6.31926
    Z9        0.00009  -0.00000   0.00000  -0.00000  -0.00000   0.00009
   X10        6.96425  -0.01346   0.00000  -0.02255  -0.02255   6.94169
   Y10        1.11541  -0.01244   0.00000  -0.02187  -0.02304   1.09237
   Z10       -0.00004   0.00000   0.00000   0.00000   0.00000  -0.00004
   X11        3.58943   0.01148   0.00000  -0.01855  -0.01855   3.57088
   Y11       -1.70409   0.00648   0.00000  -0.00195  -0.00313  -1.70721
   Z11        0.00023  -0.00002   0.00000  -0.00004  -0.00004   0.00019
   X12        7.87970   0.01916   0.00000   0.00606   0.00606   7.88576
   Y12       -1.40201   0.00795   0.00000   0.00725   0.00607  -1.39594
   Z12       -0.00016  -0.00000   0.00000   0.00000   0.00000  -0.00016
   X13        8.57905   0.01739   0.00000  -0.00592  -0.00592   8.57313
   Y13        3.15004   0.00666   0.00000  -0.00128  -0.00245   3.14758
   Z13       -0.00011  -0.00000   0.00000  -0.00000  -0.00000  -0.00011
   X14       10.45553   0.00397   0.00000   0.00439   0.00439  10.45992
   Y14       -1.89163   0.00926   0.00000   0.00643   0.00525  -1.88637
   Z14       -0.00036  -0.00000   0.00000  -0.00000  -0.00000  -0.00037
   X15       11.19999  -0.01813   0.00000  -0.02431  -0.02431  11.17568
   Y15        2.65160   0.01057   0.00000   0.00259   0.00141   2.65301
   Z15       -0.00032   0.00000   0.00000   0.00000   0.00000  -0.00032
   X16        7.87559   0.00098   0.00000   0.00232   0.00232   7.87790
   Y16        5.07306  -0.00027   0.00000   0.00029  -0.00089   5.07217
   Z16        0.00002  -0.00000   0.00000  -0.00000  -0.00000   0.00001
   X17       12.10190  -0.00126   0.00000  -0.00446  -0.00446  12.09743
   Y17        0.20318  -0.01883   0.00000  -0.01305  -0.01423   0.18895
   Z17       -0.00046   0.00000   0.00000   0.00000   0.00000  -0.00046
   X18       11.16464   0.00108   0.00000   0.00687   0.00687  11.17151
   Y18       -3.81646   0.00046   0.00000   0.00659   0.00541  -3.81105
   Z18       -0.00046   0.00000   0.00000   0.00000   0.00000  -0.00046
   X19       12.49706   0.00140   0.00000  -0.00996  -0.00996  12.48710
   Y19        4.23713   0.00026   0.00000  -0.00224  -0.00342   4.23371
   Z19       -0.00037  -0.00000   0.00000  -0.00000  -0.00000  -0.00037
   X20       14.12160   0.00184   0.00000   0.00158   0.00158  14.12318
   Y20       -0.13353  -0.00033   0.00000  -0.00475  -0.00593  -0.13946
   Z20       -0.00062  -0.00000   0.00000   0.00000   0.00000  -0.00062
   X21       -6.96423   0.01345   0.00000   0.02255   0.02255  -6.94168
   Y21        1.11540  -0.01243   0.00000  -0.02186  -0.02304   1.09236
   Z21       -0.00007  -0.00000   0.00000   0.00001   0.00001  -0.00007
   X22       -3.58942  -0.01148   0.00000   0.01855   0.01855  -3.57087
   Y22       -1.70409   0.00647   0.00000  -0.00195  -0.00313  -1.70722
   Z22        0.00019  -0.00002   0.00000  -0.00004  -0.00004   0.00015
   X23       -7.87970  -0.01914   0.00000  -0.00605  -0.00605  -7.88575
   Y23       -1.40202   0.00795   0.00000   0.00725   0.00607  -1.39595
   Z23       -0.00013  -0.00000   0.00000   0.00001   0.00001  -0.00012
   X24       -8.57906  -0.01737   0.00000   0.00593   0.00593  -8.57313
   Y24        3.15004   0.00664   0.00000  -0.00129  -0.00246   3.14757
   Z24       -0.00010  -0.00000   0.00000  -0.00000  -0.00000  -0.00010
   X25      -10.45551  -0.00399   0.00000  -0.00440  -0.00440 -10.45991
   Y25       -1.89164   0.00926   0.00000   0.00643   0.00526  -1.88639
   Z25       -0.00019  -0.00000   0.00000  -0.00000  -0.00000  -0.00019
   X26      -11.19998   0.01812   0.00000   0.02430   0.02430 -11.17567
   Y26        2.65158   0.01058   0.00000   0.00259   0.00141   2.65299
   Z26       -0.00019   0.00000   0.00000  -0.00000  -0.00000  -0.00019
   X27       -7.87559  -0.00098   0.00000  -0.00231  -0.00231  -7.87790
   Y27        5.07305  -0.00026   0.00000   0.00029  -0.00089   5.07216
   Z27       -0.00004  -0.00000   0.00000  -0.00000  -0.00000  -0.00005
   X28      -12.10189   0.00127   0.00000   0.00447   0.00447 -12.09743
   Y28        0.20316  -0.01884   0.00000  -0.01305  -0.01423   0.18893
   Z28       -0.00023   0.00000   0.00000  -0.00000  -0.00000  -0.00023
   X29      -11.16463  -0.00108   0.00000  -0.00687  -0.00687 -11.17150
   Y29       -3.81648   0.00046   0.00000   0.00659   0.00542  -3.81106
   Z29       -0.00020  -0.00000   0.00000  -0.00000  -0.00000  -0.00020
   X30      -12.49706  -0.00140   0.00000   0.00996   0.00996 -12.48710
   Y30        4.23711   0.00026   0.00000  -0.00224  -0.00342   4.23369
   Z30       -0.00020  -0.00000   0.00000  -0.00000  -0.00000  -0.00020
   X31      -14.12158  -0.00184   0.00000  -0.00159  -0.00159 -14.12317
   Y31       -0.13355  -0.00033   0.00000  -0.00475  -0.00593  -0.13948
   Z31       -0.00029   0.00000   0.00000   0.00000   0.00000  -0.00029
   X32       -4.34936  -0.04481   0.00000   0.02290   0.02290  -4.32646
   Y32        0.92349  -0.09350   0.00000  -0.07661  -0.07779   0.84570
   Z32        0.00002   0.00001   0.00000   0.00002   0.00002   0.00004
   X33       -5.87458   0.03746   0.00000   0.04367   0.04367  -5.83091
   Y33       -3.03220   0.03130   0.00000   0.03215   0.03097  -3.00123
   Z33       -0.00009   0.00001   0.00000   0.00002   0.00002  -0.00007
   X34        4.34936   0.04482   0.00000  -0.02290  -0.02290   4.32646
   Y34        0.92349  -0.09350   0.00000  -0.07661  -0.07779   0.84570
   Z34        0.00014   0.00001   0.00000   0.00001   0.00001   0.00015
   X35        5.87459  -0.03746   0.00000  -0.04366  -0.04366   5.83092
   Y35       -3.03219   0.03130   0.00000   0.03214   0.03097  -3.00122
   Z35       -0.00010   0.00001   0.00000   0.00002   0.00002  -0.00007
   X36        6.03130   0.00062   0.00000  -0.01246  -0.01246   6.01885
   Y36       -5.70946  -0.01825   0.00000   0.00082  -0.00035  -5.70981
   Z36        0.00002  -0.00000   0.00000  -0.00000  -0.00000   0.00002
   X37        7.00801   0.00085   0.00000   0.00160   0.00160   7.00961
   Y37       -6.41739   0.00196   0.00000   0.01449   0.01331  -6.40408
   Z37       -1.69083   0.00176   0.00000   0.00561   0.00561  -1.68523
   X38        7.00717   0.00085   0.00000   0.00160   0.00160   7.00877
   Y38       -6.41743   0.00197   0.00000   0.01450   0.01332  -6.40411
   Z38        1.69136  -0.00176   0.00000  -0.00561  -0.00561   1.68575
   X39        4.12564   0.00089   0.00000  -0.00864  -0.00864   4.11700
   Y39       -6.51859   0.00423   0.00000   0.01263   0.01145  -6.50713
   Z39       -0.00050   0.00000   0.00000   0.00001   0.00001  -0.00049
   X40       -6.03128  -0.00062   0.00000   0.01246   0.01246  -6.01883
   Y40       -5.70946  -0.01825   0.00000   0.00082  -0.00035  -5.70982
   Z40        0.00009  -0.00000   0.00000  -0.00000  -0.00000   0.00009
   X41       -7.00704  -0.00085   0.00000  -0.00160  -0.00160  -7.00864
   Y41       -6.41740   0.00197   0.00000   0.01450   0.01332  -6.40408
   Z41        1.69151  -0.00176   0.00000  -0.00561  -0.00561   1.68590
   X42       -7.00810  -0.00086   0.00000  -0.00160  -0.00160  -7.00970
   Y42       -6.41743   0.00196   0.00000   0.01449   0.01331  -6.40412
   Z42       -1.69068   0.00176   0.00000   0.00561   0.00561  -1.68507
   X43       -4.12562  -0.00089   0.00000   0.00864   0.00864  -4.11698
   Y43       -6.51859   0.00423   0.00000   0.01263   0.01145  -6.50714
   Z43       -0.00055   0.00000   0.00000   0.00001   0.00001  -0.00054
   X44        0.00001  -0.00000   0.00000  -0.00000  -0.00000   0.00001
   Y44       -2.30000   0.05021   0.00000   0.07147   0.07029  -2.22970
   Z44        0.00013   0.00001   0.00000  -0.00001  -0.00001   0.00012
         Item               Value     Threshold  Converged?
 Maximum Force            0.111354     0.000450     NO 
 RMS     Force            0.023444     0.000300     NO 
 Maximum Displacement     0.139867     0.001800     NO 
 RMS     Displacement     0.026115     0.001200     NO 
 Predicted change in Energy=-3.534509D-02
 GradGradGradGradGradGradGradGradGradGradGradGradGradGradGradGradGradGrad

 Unable to Open any file for archive entry.
 1\1\GINC-X11P1N5\Force\UPBE1PBE\GenECP\C22H17Co1N4\MAYUMIAO\17-Jul-202
 4\0\\# pbe1pbe em=gd3bj genecp g09default scf=(xqc,maxcycle=64) force 
 guess=read nosymm\\Title Card\\0,1\C,0.00000319,0.79287757,0.00010642\
 C,-1.30659392,1.35112859,0.000037\C,-1.26444847,2.74061812,-0.00000924
 \C,-0.00000112,3.36472382,0.00001321\C,1.26445122,2.7406199,0.00003989
 \C,1.30659573,1.35112879,0.00007249\H,-2.16953903,3.33745729,-0.000045
 54\H,0.00000029,4.45305587,-0.0000105\H,2.16953913,3.33745809,0.000046
 48\C,3.68532176,0.59025153,-0.00002287\C,1.89944542,-0.90176375,0.0001
 193\C,4.16975799,-0.74191257,-0.00008673\C,4.5398383,1.66692795,-0.000
 05603\C,5.53283039,-1.00100609,-0.00019145\C,5.92677892,1.40316435,-0.
 00017143\H,4.1675809,2.68454583,0.00000943\C,6.40404738,0.10751606,-0.
 00024219\H,5.9080733,-2.01958403,-0.00024253\H,6.61315742,2.24219071,-
 0.00019524\H,7.47282655,-0.07065988,-0.00032939\C,-3.68531206,0.590242
 35,-0.00003919\C,-1.89943906,-0.90176332,0.00010272\C,-4.16976028,-0.7
 419164,-0.00006752\C,-4.53984321,1.66692828,-0.0000551\C,-5.53281577,-
 1.00101493,-0.00009931\C,-5.92677246,1.4031542,-0.00010008\H,-4.167580
 92,2.68454003,-0.0000238\C,-6.40404694,0.10750982,-0.000123\H,-5.90806
 571,-2.01959266,-0.00010406\H,-6.61315792,2.24218269,-0.0001069\H,-7.4
 728204,-0.07067078,-0.00015345\N,-2.30158209,0.48868819,0.00001128\N,-
 3.10869207,-1.60456937,-0.00005023\N,2.30158215,0.48868966,0.00007353\
 N,3.10869814,-1.60456508,-0.0000508\C,3.1916282,-3.02131383,0.00000996
 \H,3.70847803,-3.3959366,-0.89475097\H,3.70803693,-3.39595532,0.895027
 08\H,2.18319588,-3.44948725,-0.00026617\C,-3.191618,-3.02131692,0.0000
 4871\H,-3.70796521,-3.39594133,0.89510872\H,-3.70852797,-3.39595791,-0
 .89466938\H,-2.18318475,-3.44948939,-0.00029349\Co,0.00000603,-1.21710
 496,0.00007042\\Version=ES64L-G16RevC.01\HF=-1212.1028495\S2=0.\S2-1=0
 .\S2A=0.\RMSD=4.794e-09\RMSF=2.344e-02\Dipole=0.0000067,-1.555323,-0.0
 001219\Quadrupole=13.3783327,7.0117124,-20.390045,0.0000389,-0.0003801
 ,0.0003883\PG=C01 [X(C22H17Co1N4)]\\@
 The archive entry for this job was punched.


 THE MOLECULE ALSO HAS A BODY.  WHEN THIS BODY IS HIT, THE MOLECULE
 FEELS HURT ALL OVER -- A. KITAIGORODSKI
 Job cpu time:       0 days  0 hours 28 minutes 12.7 seconds.
 Elapsed time:       0 days  0 hours  0 minutes 30.9 seconds.
 File lengths (MBytes):  RWF=    184 Int=      0 D2E=      0 Chk=    162 Scr=      1
 Normal termination of Gaussian 16 at Wed Jul 17 21:00:16 2024.
