 Entering Gaussian System, Link 0=g16
 Input=JOBS/17_B.gjf
 Output=JOBS/17_B.log
 Initial command:
 /data/app/gaussian/C01-avx2//g16/l1.exe "/tmp/Gau-2063194.inp" -scrdir="/tmp/"
 Entering Link 1 = /data/app/gaussian/C01-avx2//g16/l1.exe PID=   2063195.
  
 Copyright (c) 1988-2019, Gaussian, Inc.  All Rights Reserved.
  
 This is part of the Gaussian(R) 16 program.  It is based on
 the Gaussian(R) 09 system (copyright 2009, Gaussian, Inc.),
 the Gaussian(R) 03 system (copyright 2003, Gaussian, Inc.),
 the Gaussian(R) 98 system (copyright 1998, Gaussian, Inc.),
 the Gaussian(R) 94 system (copyright 1995, Gaussian, Inc.),
 the Gaussian 92(TM) system (copyright 1992, Gaussian, Inc.),
 the Gaussian 90(TM) system (copyright 1990, Gaussian, Inc.),
 the Gaussian 88(TM) system (copyright 1988, Gaussian, Inc.),
 the Gaussian 86(TM) system (copyright 1986, Carnegie Mellon
 University), and the Gaussian 82(TM) system (copyright 1983,
 Carnegie Mellon University). Gaussian is a federally registered
 trademark of Gaussian, Inc.
  
 This software contains proprietary and confidential information,
 including trade secrets, belonging to Gaussian, Inc.
  
 This software is provided under written license and may be
 used, copied, transmitted, or stored only in accord with that
 written license.
  
 The following legend is applicable only to US Government
 contracts under FAR:
  
                    RESTRICTED RIGHTS LEGEND
  
 Use, reproduction and disclosure by the US Government is
 subject to restrictions as set forth in subparagraphs (a)
 and (c) of the Commercial Computer Software - Restricted
 Rights clause in FAR 52.227-19.
  
 Gaussian, Inc.
 340 Quinnipiac St., Bldg. 40, Wallingford CT 06492
  
  
 ---------------------------------------------------------------
 Warning -- This program may not be used in any manner that
 competes with the business of Gaussian, Inc. or will provide
 assistance to any competitor of Gaussian, Inc.  The licensee
 of this program is prohibited from giving any competitor of
 Gaussian, Inc. access to this program.  By using this program,
 the user acknowledges that Gaussian, Inc. is engaged in the
 business of creating and licensing software in the field of
 computational chemistry and represents and warrants to the
 licensee that it is not a competitor of Gaussian, Inc. and that
 it will not use this program in any manner prohibited above.
 ---------------------------------------------------------------
  

 Cite this work as:
 Gaussian 16, Revision C.01,
 M. J. Frisch, G. W. Trucks, H. B. Schlegel, G. E. Scuseria, 
 M. A. Robb, J. R. Cheeseman, G. Scalmani, V. Barone, 
 G. A. Petersson, H. Nakatsuji, X. Li, M. Caricato, A. V. Marenich, 
 J. Bloino, B. G. Janesko, R. Gomperts, B. Mennucci, H. P. Hratchian, 
 J. V. Ortiz, A. F. Izmaylov, J. L. Sonnenberg, D. Williams-Young, 
 F. Ding, F. Lipparini, F. Egidi, J. Goings, B. Peng, A. Petrone, 
 T. Henderson, D. Ranasinghe, V. G. Zakrzewski, J. Gao, N. Rega, 
 G. Zheng, W. Liang, M. Hada, M. Ehara, K. Toyota, R. Fukuda, 
 J. Hasegawa, M. Ishida, T. Nakajima, Y. Honda, O. Kitao, H. Nakai, 
 T. Vreven, K. Throssell, J. A. Montgomery, Jr., J. E. Peralta, 
 F. Ogliaro, M. J. Bearpark, J. J. Heyd, E. N. Brothers, K. N. Kudin, 
 V. N. Staroverov, T. A. Keith, R. Kobayashi, J. Normand, 
 K. Raghavachari, A. P. Rendell, J. C. Burant, S. S. Iyengar, 
 J. Tomasi, M. Cossi, J. M. Millam, M. Klene, C. Adamo, R. Cammi, 
 J. W. Ochterski, R. L. Martin, K. Morokuma, O. Farkas, 
 J. B. Foresman, and D. J. Fox, Gaussian, Inc., Wallingford CT, 2019.
 
 ******************************************
 Gaussian 16:  ES64L-G16RevC.01  3-Jul-2019
                17-Jul-2024 
 ******************************************
 %chk=b.chk
 %nprocshared=56
 Will use up to   56 processors via shared memory.
 %mem=96gb
 ----------------------------------------------------------------------
 # pbe1pbe em=gd3bj genecp g09default scf=(xqc,maxcycle=64) force guess
 =read nosymm
 ----------------------------------------------------------------------
 1/10=7,30=1,38=1,158=3,167=1/1,3;
 2/12=2,15=1,17=6,18=5,40=1/2;
 3/5=7,11=2,16=1,17=8,25=1,27=10,30=1,71=1,74=-13,75=-4,116=-2,124=41,158=3/1,2,3;
 4/5=1,60=-1/1;
 5/5=2,7=64,8=3,13=1,38=6,87=10/2,8;
 6/7=2,8=2,9=2,10=2,28=1,87=10/1;
 7/29=1,30=1,87=10/1,2,3,16;
 1/10=7,30=1,158=3,167=1/3;
 99//99;
 Using 2006 physical constants.
 ----------
 Title Card
 ----------
 Symbolic Z-matrix:
 Charge =  0 Multiplicity = 3
 6                     0.        0.79288   0.00011 
 6                    -1.30659   1.35113   0.00004 
 6                    -1.26445   2.74062  -0.00001 
 6                    0.         3.36472   0.00001 
 6                     1.26445   2.74062   0.00004 
 6                     1.3066    1.35113   0.00007 
 1                    -2.16954   3.33746  -0.00005 
 1                     0.        4.45306  -0.00001 
 1                     2.16954   3.33746   0.00005 
 6                     3.68532   0.59025  -0.00002 
 6                     1.89945  -0.90176   0.00012 
 6                     4.16976  -0.74191  -0.00009 
 6                     4.53984   1.66693  -0.00006 
 6                     5.53283  -1.00101  -0.00019 
 6                     5.92678   1.40316  -0.00017 
 1                     4.16758   2.68455   0.00001 
 6                     6.40405   0.10752  -0.00024 
 1                     5.90807  -2.01958  -0.00024 
 1                     6.61316   2.24219  -0.0002 
 1                     7.47283  -0.07066  -0.00033 
 6                    -3.68531   0.59024  -0.00004 
 6                    -1.89944  -0.90176   0.0001 
 6                    -4.16976  -0.74192  -0.00007 
 6                    -4.53984   1.66693  -0.00006 
 6                    -5.53282  -1.00101  -0.0001 
 6                    -5.92677   1.40315  -0.0001 
 1                    -4.16758   2.68454  -0.00002 
 6                    -6.40405   0.10751  -0.00012 
 1                    -5.90807  -2.01959  -0.0001 
 1                    -6.61316   2.24218  -0.00011 
 1                    -7.47282  -0.07067  -0.00015 
 7                    -2.30158   0.48869   0.00001 
 7                    -3.10869  -1.60457  -0.00005 
 7                     2.30158   0.48869   0.00007 
 7                     3.1087   -1.60457  -0.00005 
 6                     3.19163  -3.02131   0.00001 
 1                     3.70848  -3.39594  -0.89475 
 1                     3.70804  -3.39596   0.89503 
 1                     2.1832   -3.44949  -0.00027 
 6                    -3.19162  -3.02132   0.00005 
 1                    -3.70797  -3.39594   0.89511 
 1                    -3.70853  -3.39596  -0.89467 
 1                    -2.18318  -3.44949  -0.00029 
 27                    0.00001  -1.2171    0.00007 
 

 GradGradGradGradGradGradGradGradGradGradGradGradGradGradGradGradGradGrad
 Berny optimization.
 Initialization pass.
 Trust Radius=3.00D-01 FncErr=1.00D-07 GrdErr=1.00D-07 EigMax=2.50D+02 EigMin=1.00D-04
 Number of steps in this run=      2 maximum allowed number of steps=      2.
 GradGradGradGradGradGradGradGradGradGradGradGradGradGradGradGradGradGrad

                          Input orientation:                          
 ---------------------------------------------------------------------
 Center     Atomic      Atomic             Coordinates (Angstroms)
 Number     Number       Type             X           Y           Z
 ---------------------------------------------------------------------
      1          6           0        0.000003    0.792878    0.000106
      2          6           0       -1.306594    1.351129    0.000037
      3          6           0       -1.264448    2.740618   -0.000009
      4          6           0       -0.000001    3.364724    0.000013
      5          6           0        1.264451    2.740620    0.000040
      6          6           0        1.306596    1.351129    0.000072
      7          1           0       -2.169539    3.337457   -0.000046
      8          1           0        0.000000    4.453056   -0.000011
      9          1           0        2.169539    3.337458    0.000046
     10          6           0        3.685322    0.590252   -0.000023
     11          6           0        1.899445   -0.901764    0.000119
     12          6           0        4.169758   -0.741913   -0.000087
     13          6           0        4.539838    1.666928   -0.000056
     14          6           0        5.532830   -1.001006   -0.000191
     15          6           0        5.926779    1.403164   -0.000171
     16          1           0        4.167581    2.684546    0.000009
     17          6           0        6.404047    0.107516   -0.000242
     18          1           0        5.908073   -2.019584   -0.000243
     19          1           0        6.613157    2.242191   -0.000195
     20          1           0        7.472827   -0.070660   -0.000329
     21          6           0       -3.685312    0.590242   -0.000039
     22          6           0       -1.899439   -0.901763    0.000103
     23          6           0       -4.169760   -0.741916   -0.000068
     24          6           0       -4.539843    1.666928   -0.000055
     25          6           0       -5.532816   -1.001015   -0.000099
     26          6           0       -5.926772    1.403154   -0.000100
     27          1           0       -4.167581    2.684540   -0.000024
     28          6           0       -6.404047    0.107510   -0.000123
     29          1           0       -5.908066   -2.019593   -0.000104
     30          1           0       -6.613158    2.242183   -0.000107
     31          1           0       -7.472820   -0.070671   -0.000153
     32          7           0       -2.301582    0.488688    0.000011
     33          7           0       -3.108692   -1.604569   -0.000050
     34          7           0        2.301582    0.488690    0.000074
     35          7           0        3.108698   -1.604565   -0.000051
     36          6           0        3.191628   -3.021314    0.000010
     37          1           0        3.708478   -3.395937   -0.894751
     38          1           0        3.708037   -3.395955    0.895027
     39          1           0        2.183196   -3.449487   -0.000266
     40          6           0       -3.191618   -3.021317    0.000049
     41          1           0       -3.707965   -3.395941    0.895109
     42          1           0       -3.708528   -3.395958   -0.894669
     43          1           0       -2.183185   -3.449489   -0.000293
     44         27           0        0.000006   -1.217105    0.000070
 ---------------------------------------------------------------------
                    Distance matrix (angstroms):
                    1          2          3          4          5
     1  C    0.000000
     2  C    1.420859   0.000000
     3  C    2.322182   1.390129   0.000000
     4  C    2.571846   2.400365   1.410083   0.000000
     5  C    2.322182   2.922492   2.528900   1.410087   0.000000
     6  C    1.420855   2.613190   2.922490   2.400367   1.390130
     7  H    3.343920   2.165681   1.084161   2.169709   3.485470
     8  H    3.660178   3.365879   2.128679   1.088332   2.128679
     9  H    3.343916   4.003624   3.485468   2.169712   1.084159
    10  C    3.690885   5.049570   5.396694   4.612949   3.238008
    11  C    2.545524   3.918445   4.824642   4.670205   3.697320
    12  C    4.443246   5.862700   6.454349   5.852466   4.535288
    13  C    4.623210   5.854955   5.902758   4.846922   3.446879
    14  C    5.816373   7.232583   7.759043   7.047824   5.676163
    15  C    5.958114   7.233560   7.314543   6.242951   4.850370
    16  H    4.576802   5.634234   5.432319   4.222722   2.903671
    17  C    6.440614   7.810286   8.107962   7.184792   5.774832
    18  H    6.543335   7.963236   8.608402   7.993505   6.650020
    19  H    6.770105   7.969721   7.893358   6.707753   5.371880
    20  H    7.522552   8.893802   9.178413   8.224659   6.815220
    21  C    3.690882   2.497448   3.238008   4.612945   5.396692
    22  C    2.545523   2.329590   3.697317   4.670201   4.824641
    23  C    4.443256   3.546626   4.535293   5.852468   6.454356
    24  C    4.623221   3.248635   3.446886   4.846924   5.902766
    25  C    5.816368   4.836686   5.676159   7.047816   7.759038
    26  C    5.958113   4.620471   4.850369   6.242946   7.314541
    27  H    4.576805   3.156459   2.903674   4.222721   5.432322
    28  C    6.440620   5.246962   5.774836   7.184793   8.107967
    29  H    6.543338   5.703973   6.650022   7.993503   8.608404
    30  H    6.770110   5.380855   5.371883   6.707752   7.893362
    31  H    7.522553   6.328022   6.815220   8.224656   9.178413
    32  N    2.321600   1.316740   2.479281   3.683593   4.217557
    33  N    3.925779   3.461749   4.720370   5.861556   6.164824
    34  N    2.321593   3.709816   4.217553   3.683593   2.479280
    35  N    3.925776   5.313279   6.164822   5.861556   4.720369
    36  C    4.973382   6.273138   7.283988   7.139186   6.075680
    37  H    5.665661   6.963205   7.949079   7.762728   6.665677
    38  H    5.665397   6.962926   7.948851   7.762563   6.665558
    39  H    4.771162   5.935027   7.085454   7.155405   6.257916
    40  C    4.973382   4.761470   6.075679   7.139183   7.283987
    41  H    5.665356   5.394665   6.665536   7.762525   7.948802
    42  H    5.665701   5.394870   6.665696   7.762760   7.949127
    43  H    4.771162   4.879994   6.257916   7.155403   7.085453
    44  Co   2.009983   2.881497   4.154807   4.581829   4.154805
                    6          7          8          9         10
     6  C    0.000000
     7  H    4.003625   0.000000
     8  H    3.365879   2.439562   0.000000
     9  H    2.165681   4.339078   2.439561   0.000000
    10  C    2.497453   6.467344   5.338806   3.137633   0.000000
    11  C    2.329591   5.876022   5.681724   4.247817   2.327115
    12  C    3.546621   7.538431   6.661425   4.543362   1.417512
    13  C    3.248628   6.914218   5.326597   2.899826   1.374566
    14  C    4.836693   8.840179   7.769106   5.489444   2.438317
    15  C    4.620476   8.324173   6.665474   4.225913   2.384315
    16  H    3.156460   6.370666   4.527290   2.102015   2.149103
    17  C    5.246960   9.161818   7.739221   5.325747   2.761250
    18  H    5.703972   9.692560   8.763583   6.532575   3.428099
    19  H    5.380854   8.850727   6.972931   4.576609   3.361715
    20  H    6.328024  10.226949   8.735396   6.303977   3.844736
    21  C    5.049564   3.137636   5.338807   6.467339   7.370634
    22  C    3.918441   4.247817   5.681721   5.876018   5.780628
    23  C    5.862705   4.543366   6.661429   7.538436   7.967245
    24  C    5.854962   2.899829   5.326602   6.914223   8.295334
    25  C    7.232574   5.489442   7.769102   8.840171   9.354474
    26  C    7.233555   4.225912   6.665473   8.324169   9.646407
    27  H    5.634234   2.102016   4.527293   6.370667   8.127369
    28  C    7.810288   5.325750   7.739224   9.161820  10.100911
    29  H    7.963234   6.532577   8.763585   9.692559   9.942051
    30  H    7.969722   4.576612   6.972935   8.850729  10.430128
    31  H    8.893799   6.303977   8.735396  10.226947  11.177699
    32  N    3.709818   2.851828   4.584048   5.301548   5.987765
    33  N    5.313278   5.030471   6.808729   7.230723   7.139738
    34  N    1.316738   5.301547   4.584046   2.851827   1.387462
    35  N    3.461748   7.230724   6.808728   5.030468   2.269298
    36  C    4.761471   8.317216   8.127281   6.440392   3.645153
    37  H    5.394847   8.982771   8.726973   6.964740   4.085434
    38  H    5.394689   8.982533   8.726832   6.964684   4.085520
    39  H    4.879994   8.062811   8.198569   6.786959   4.309974
    40  C    6.273134   6.440392   8.127280   8.317213   7.767608
    41  H    6.962872   6.964676   8.726798   8.982475   8.446993
    42  H    6.963251   6.964748   8.727005   8.982821   8.447442
    43  H    5.935023   6.786960   8.198568   8.062807   7.124526
    44  Co   2.881493   5.044895   5.670161   5.044890   4.104642
                   11         12         13         14         15
    11  C    0.000000
    12  C    2.275933   0.000000
    13  C    3.683728   2.437103   0.000000
    14  C    3.634740   1.387478   2.846736   0.000000
    15  C    4.640270   2.772810   1.411799   2.436233   0.000000
    16  H    4.243354   3.426459   1.083569   3.930293   2.176400
    17  C    4.616285   2.390309   2.430440   1.409908   1.380757
    18  H    4.161565   2.157356   3.932231   1.085499   3.422799
    19  H    5.665998   3.856822   2.151646   3.418396   1.084011
    20  H    5.635008   3.370585   3.409051   2.151541   2.135982
    21  C    5.780623   7.967231   8.295321   9.354476   9.646405
    22  C    3.798884   6.071302   6.932710   7.432932   8.158577
    23  C    6.071310   8.339518   9.036572   9.706049  10.321893
    24  C    6.932721   9.036574   9.079682  10.420011  10.469945
    25  C    7.432924   9.706033  10.419994  11.065646  11.709073
    26  C    8.158574  10.321882  10.469934  11.709077  11.853551
    27  H    7.047722   9.013978   8.766680  10.376957  10.175364
    28  C    8.364605  10.607868  11.054429  11.988238  12.398709
    29  H    7.887127  10.158494  11.079221  11.486149  12.319854
    30  H    9.074625  11.188213  11.167822  12.571528  12.567974
    31  H    9.409043  11.661912  12.137678  13.038883  13.480410
    32  N    4.425154   6.587308   6.942138   7.974786   8.279021
    33  N    5.057210   7.329394   8.318817   8.662575   9.522930
    34  N    1.447437   2.237066   2.529434   3.558112   3.738759
    35  N    1.398650   1.367486   3.570830   2.498139   4.121652
    36  C    2.482384   2.480405   4.878246   3.092389   5.201640
    37  H    3.208472   2.838494   5.208093   3.140731   5.362136
    38  H    3.208248   2.838725   5.208249   3.141189   5.362438
    39  H    2.563476   3.358182   5.633069   4.149110   6.128837
    40  C    5.514656   7.706201   9.041850   8.955314  10.135147
    41  H    6.202014   8.360847   9.719065   9.587991  10.800983
    42  H    6.202501   8.361317   9.719501   9.588461  10.801428
    43  H    4.812357   6.905856   8.448477   8.095181   9.450913
    44  Co   1.925438   4.196742   5.378450   5.537043   6.480158
                   16         17         18         19         20
    16  H    0.000000
    17  C    3.412164   0.000000
    18  H    5.015790   2.184158   0.000000
    19  H    2.485261   2.144892   4.319707   0.000000
    20  H    4.303000   1.083529   2.499352   2.467450   0.000000
    21  C    8.127363  10.100901   9.942044  10.430120  11.177694
    22  C    7.047719   8.364600   7.887127   9.074621   9.409043
    23  C    9.013984  10.607872  10.158502  11.188217  11.661922
    24  C    8.766686  11.054434  11.079230  11.167827  12.137687
    25  C   10.376948  11.988225  11.486141  12.571517  13.038876
    26  C   10.175359  12.398701  12.319850  12.567968  13.480407
    27  H    8.335162  10.881194  11.119694  10.789810  11.962032
    28  C   10.881196  12.808094  12.494512  13.191075  13.878017
    29  H   11.119693  12.494508  11.816139  13.226633  13.522079
    30  H   10.789811  13.191074  13.226636  13.226315  14.274600
    31  H   11.962030  13.878012  13.522077  14.274596  14.945647
    32  N    6.831681   8.713970   8.584280   9.085557   9.790400
    33  N    8.446340   9.665581   9.026311  10.455234  10.692119
    34  N    2.881620   4.120135   4.392973   4.654508   5.201408
    35  N    4.417885   3.713563   2.829972   5.203726   4.625849
    36  C    5.788723   4.484330   2.895261   6.277845   5.199521
    37  H    6.163087   4.510036   2.744578   6.405144   5.101742
    38  H    6.163175   4.510465   2.745190   6.405454   5.102244
    39  H    6.447026   5.519770   3.989904   7.212472   6.276676
    40  C    9.312072  10.092888   9.154663  11.128258  11.065114
    41  H    9.989883  10.739118   9.755214  11.794731  11.699120
    42  H    9.990299  10.739577   9.755687  11.795168  11.699579
    43  H    8.829417   9.294775   8.216635  10.477159  10.230105
    44  Co   5.708902   6.539600   5.962318   7.463277   7.560250
                   21         22         23         24         25
    21  C    0.000000
    22  C    2.327106   0.000000
    23  C    1.417511   2.275941   0.000000
    24  C    1.374582   3.683736   2.437108   0.000000
    25  C    2.438313   3.634732   1.387463   2.846738   0.000000
    26  C    2.384318   4.640265   2.772800   1.411789   2.436233
    27  H    2.149108   4.243352   3.426457   1.083565   3.930290
    28  C    2.761259   4.616289   2.390306   2.430441   1.409919
    29  H    3.428100   4.161566   2.157351   3.932235   1.085501
    30  H    3.361724   5.665999   3.856817   2.151639   3.418402
    31  H    3.844740   5.635006   3.370575   3.409048   2.151548
    32  N    1.387452   1.447437   2.237069   2.529439   3.558102
    33  N    2.269293   1.398653   1.367493   3.570839   2.498130
    34  N    5.987755   4.425148   6.587311   6.942143   7.974773
    35  N    7.139731   5.057210   7.329401   8.318825   8.662565
    36  C    7.767602   5.514659   7.706211   9.041862   8.955307
    37  H    8.447382   6.202451   8.361275   9.719459   9.588408
    38  H    8.447042   6.202070   8.360909   9.719130   9.588032
    39  H    7.124521   4.812360   6.905866   8.448489   8.095175
    40  C    3.645147   2.482385   2.480409   4.878253   3.092382
    41  H    4.085519   3.208228   2.838740   5.208262   3.141202
    42  H    4.085425   3.208493   2.838483   5.208093   3.140706
    43  H    4.309967   2.563478   3.358189   5.633078   4.149103
    44  Co   4.104641   1.925443   4.196755   5.378464   5.537040
                   26         27         28         29         30
    26  C    0.000000
    27  H    2.176397   0.000000
    28  C    1.380755   3.412164   0.000000
    29  H    3.422798   5.015790   2.184162   0.000000
    30  H    1.084017   2.485262   2.144891   4.319709   0.000000
    31  H    2.135983   4.302998   1.083524   2.499351   2.467450
    32  N    3.738750   2.881617   4.120135   4.392971   4.654506
    33  N    4.121648   4.417885   3.713567   2.829971   5.203728
    34  N    8.279014   6.831678   8.713970   8.584276   9.085556
    35  N    9.522925   8.446340   9.665584   9.026310  10.455236
    36  C   10.135144   9.312074  10.092894   9.154664  11.128263
    37  H   10.801376   9.990247  10.739537   9.755646  11.795124
    38  H   10.801030   9.989940  10.739171   9.755258  11.794784
    39  H    9.450911   8.829420   9.294782   8.216636  10.477163
    40  C    5.201636   5.788722   4.484335   2.895262   6.277847
    41  H    5.362446   6.163178   4.510484   2.745211   6.405466
    42  H    5.362121   6.163082   4.510025   2.744557   6.405134
    43  H    6.128833   6.447026   5.519775   3.989905   7.212475
    44  Co   6.480159   5.708907   6.539610   5.962323   7.463284
                   31         32         33         34         35
    31  H    0.000000
    32  N    5.201403   0.000000
    33  N    4.625847   2.243469   0.000000
    34  N    9.790395   4.603164   5.801103   0.000000
    35  N   10.692117   5.801107   6.217390   2.243469   0.000000
    36  C   11.065114   6.518855   6.457647   3.621092   1.419174
    37  H   11.699536   7.211916   7.105160   4.227338   2.090272
    38  H   11.699164   7.211590   7.104789   4.227236   2.090323
    39  H   10.230105   5.968455   5.604266   3.939956   2.064048
    40  C    5.199520   3.621091   1.419172   6.518849   6.457644
    41  H    5.102260   4.227228   2.090323   7.211526   7.104734
    42  H    5.101724   4.227343   2.090268   7.211968   7.105210
    43  H    6.276676   3.939957   2.064048   5.968449   5.604264
    44  Co   7.560254   2.864793   3.132752   2.864784   3.132745
                   36         37         38         39         40
    36  C    0.000000
    37  H    1.099124   0.000000
    38  H    1.099131   1.789778   0.000000
    39  H    1.095568   1.769027   1.769055   0.000000
    40  C    6.383246   6.967950   6.967537   5.391841   0.000000
    41  H    6.967491   7.629366   7.416002   5.959055   1.099132
    42  H    6.967996   7.417006   7.629446   5.959466   1.099123
    43  H    5.391841   5.959414   5.959107   4.366381   1.095568
    44  Co   3.666282   4.393265   4.392929   3.122475   3.666285
                   41         42         43         44
    41  H    0.000000
    42  H    1.789778   0.000000
    43  H    1.769058   1.769024   0.000000
    44  Co   4.392889   4.393311   3.122477   0.000000
 Symmetry turned off by external request.
 Stoichiometry    C22H17CoN4(3)
 Framework group  C1[X(C22H17CoN4)]
 Deg. of freedom   126
 Full point group                 C1      NOp   1
 Rotational constants (GHZ):           0.4675134           0.1008106           0.0830165
 General basis read from cards:  (5D, 7F)
 ======================================================================================================
                                       Pseudopotential Parameters
 ======================================================================================================
  Center     Atomic      Valence      Angular      Power
  Number     Number     Electrons     Momentum     of R      Exponent        Coefficient   SO-Coeffient
 ======================================================================================================
    1          6
                                   No pseudopotential on this center.
    2          6
                                   No pseudopotential on this center.
    3          6
                                   No pseudopotential on this center.
    4          6
                                   No pseudopotential on this center.
    5          6
                                   No pseudopotential on this center.
    6          6
                                   No pseudopotential on this center.
    7          1
                                   No pseudopotential on this center.
    8          1
                                   No pseudopotential on this center.
    9          1
                                   No pseudopotential on this center.
   10          6
                                   No pseudopotential on this center.
   11          6
                                   No pseudopotential on this center.
   12          6
                                   No pseudopotential on this center.
   13          6
                                   No pseudopotential on this center.
   14          6
                                   No pseudopotential on this center.
   15          6
                                   No pseudopotential on this center.
   16          1
                                   No pseudopotential on this center.
   17          6
                                   No pseudopotential on this center.
   18          1
                                   No pseudopotential on this center.
   19          1
                                   No pseudopotential on this center.
   20          1
                                   No pseudopotential on this center.
   21          6
                                   No pseudopotential on this center.
   22          6
                                   No pseudopotential on this center.
   23          6
                                   No pseudopotential on this center.
   24          6
                                   No pseudopotential on this center.
   25          6
                                   No pseudopotential on this center.
   26          6
                                   No pseudopotential on this center.
   27          1
                                   No pseudopotential on this center.
   28          6
                                   No pseudopotential on this center.
   29          1
                                   No pseudopotential on this center.
   30          1
                                   No pseudopotential on this center.
   31          1
                                   No pseudopotential on this center.
   32          7
                                   No pseudopotential on this center.
   33          7
                                   No pseudopotential on this center.
   34          7
                                   No pseudopotential on this center.
   35          7
                                   No pseudopotential on this center.
   36          6
                                   No pseudopotential on this center.
   37          1
                                   No pseudopotential on this center.
   38          1
                                   No pseudopotential on this center.
   39          1
                                   No pseudopotential on this center.
   40          6
                                   No pseudopotential on this center.
   41          1
                                   No pseudopotential on this center.
   42          1
                                   No pseudopotential on this center.
   43          1
                                   No pseudopotential on this center.
   44         27           17
                                      F and up 
                                                     2        1.0000000        0.00000000    0.00000000
                                      S - F
                                                     2       23.6600000      283.96056600    0.00000000
                                                     2       10.6100000       47.15684600    0.00000000
                                      P - F
                                                     2       25.0400000      182.21223600    0.00000000
                                                     2       10.4400000       35.23335200    0.00000000
                                      D - F
                                                     2       29.5400000      -26.47533300    0.00000000
                                                     2       10.1800000       -1.82578700    0.00000000
 ======================================================================================================
   441 basis functions,   871 primitive gaussians,   473 cartesian basis functions
    98 alpha electrons       96 beta electrons
       nuclear repulsion energy      2491.1327494764 Hartrees.
 NAtoms=   44 NActive=   44 NUniq=   44 SFac= 1.00D+00 NAtFMM=   60 NAOKFM=F Big=F
 Integral buffers will be    131072 words long.
 Raffenetti 2 integral format.
 Two-electron integral symmetry is turned off.
 Nuclear repulsion after empirical dispersion term =     2491.0735205109 Hartrees.
 One-electron integrals computed using PRISM.
   1 Symmetry operations used in ECPInt.
 ECPInt:  NShTT=   11781 NPrTT=   71406 LenC2=    9530 LenP2D=   32074.
 LDataN:  DoStor=T MaxTD1= 6 Len=  172
 NBasis=   441 RedAO= T EigKep=  3.28D-04  NBF=   441
 NBsUse=   441 1.00D-06 EigRej= -1.00D+00 NBFU=   441
 Initial guess from the checkpoint file:  "b.chk"
 B after Tr=     0.000000   -0.000863    0.000001
         Rot=    1.000000    0.000001    0.000000   -0.000000 Ang=   0.00 deg.
 Initial guess <Sx>= 0.0000 <Sy>= 0.0000 <Sz>= 1.0000 <S**2>= 2.2056 S= 1.0670
 Requested convergence on RMS density matrix=1.00D-08 within  64 cycles.
 Requested convergence on MAX density matrix=1.00D-06.
 Requested convergence on             energy=1.00D-06.
 No special actions if energy rises.
 EnCoef did     9 forward-backward iterations
 Restarting incremental Fock formation.
 SCF Done:  E(UPBE1PBE) =  -1212.10347401     A.U. after   28 cycles
            NFock= 28  Conv=0.26D-08     -V/T= 2.0551
 <Sx>= 0.0000 <Sy>= 0.0000 <Sz>= 1.0000 <S**2>= 2.2527 S= 1.0820
 <L.S>=  0.00000000000    
 Annihilation of the first spin contaminant:
 S**2 before annihilation     2.2527,   after     2.0067
 QCSCF skips out because SCF is already converged.

 **********************************************************************

            Population analysis using the SCF Density.

 **********************************************************************

 Alpha  occ. eigenvalues --  -14.45331 -14.45331 -14.44918 -14.44918 -10.28198
 Alpha  occ. eigenvalues --  -10.28198 -10.27430 -10.27430 -10.27351 -10.27350
 Alpha  occ. eigenvalues --  -10.27196 -10.27196 -10.26370 -10.26369 -10.23676
 Alpha  occ. eigenvalues --  -10.23676 -10.23532 -10.23532 -10.23049 -10.23049
 Alpha  occ. eigenvalues --  -10.22956 -10.22956 -10.22270 -10.22129 -10.22123
 Alpha  occ. eigenvalues --  -10.21041  -3.93484  -2.45731  -2.43612  -2.43051
 Alpha  occ. eigenvalues --   -1.05926  -1.05834  -0.97851  -0.97512  -0.88084
 Alpha  occ. eigenvalues --   -0.87720  -0.85243  -0.80755  -0.79003  -0.77713
 Alpha  occ. eigenvalues --   -0.77698  -0.75551  -0.74950  -0.73245  -0.71859
 Alpha  occ. eigenvalues --   -0.67030  -0.65713  -0.64469  -0.64154  -0.62720
 Alpha  occ. eigenvalues --   -0.61542  -0.58751  -0.57554  -0.56727  -0.54054
 Alpha  occ. eigenvalues --   -0.53169  -0.52169  -0.49888  -0.49799  -0.49150
 Alpha  occ. eigenvalues --   -0.49084  -0.48174  -0.47190  -0.46699  -0.45992
 Alpha  occ. eigenvalues --   -0.45659  -0.45355  -0.45190  -0.44861  -0.44462
 Alpha  occ. eigenvalues --   -0.42633  -0.41819  -0.40976  -0.38929  -0.38555
 Alpha  occ. eigenvalues --   -0.38148  -0.38082  -0.37290  -0.37177  -0.36779
 Alpha  occ. eigenvalues --   -0.36455  -0.34922  -0.34457  -0.34109  -0.31907
 Alpha  occ. eigenvalues --   -0.31360  -0.30517  -0.27130  -0.26979  -0.26705
 Alpha  occ. eigenvalues --   -0.26438  -0.25910  -0.24570  -0.23961  -0.22813
 Alpha  occ. eigenvalues --   -0.20532  -0.19949  -0.10699
 Alpha virt. eigenvalues --   -0.06183  -0.03103  -0.00193   0.00073   0.00243
 Alpha virt. eigenvalues --    0.02271   0.02738   0.03907   0.03907   0.05543
 Alpha virt. eigenvalues --    0.06104   0.07882   0.08193   0.09759   0.10242
 Alpha virt. eigenvalues --    0.12635   0.12982   0.13736   0.13871   0.14956
 Alpha virt. eigenvalues --    0.15199   0.15337   0.15798   0.16027   0.16485
 Alpha virt. eigenvalues --    0.16893   0.17833   0.17842   0.18006   0.18371
 Alpha virt. eigenvalues --    0.19480   0.19786   0.19912   0.20018   0.21208
 Alpha virt. eigenvalues --    0.21586   0.21853   0.22762   0.23902   0.25680
 Alpha virt. eigenvalues --    0.25682   0.26185   0.26616   0.27703   0.27836
 Alpha virt. eigenvalues --    0.28188   0.28478   0.30939   0.31265   0.31534
 Alpha virt. eigenvalues --    0.33108   0.33219   0.34228   0.34784   0.36201
 Alpha virt. eigenvalues --    0.37304   0.37421   0.39293   0.39586   0.41176
 Alpha virt. eigenvalues --    0.41953   0.43928   0.44506   0.46033   0.46721
 Alpha virt. eigenvalues --    0.47844   0.49049   0.51451   0.51714   0.52145
 Alpha virt. eigenvalues --    0.53773   0.53991   0.56180   0.56226   0.56429
 Alpha virt. eigenvalues --    0.56978   0.57068   0.57899   0.58440   0.58815
 Alpha virt. eigenvalues --    0.58865   0.59441   0.60288   0.61478   0.61506
 Alpha virt. eigenvalues --    0.61566   0.62923   0.63168   0.63373   0.63547
 Alpha virt. eigenvalues --    0.63551   0.63636   0.64301   0.64437   0.65158
 Alpha virt. eigenvalues --    0.65449   0.66114   0.66522   0.66935   0.67456
 Alpha virt. eigenvalues --    0.68394   0.68458   0.68871   0.71041   0.72144
 Alpha virt. eigenvalues --    0.72469   0.73366   0.74774   0.75516   0.76261
 Alpha virt. eigenvalues --    0.77427   0.78056   0.79553   0.79720   0.81102
 Alpha virt. eigenvalues --    0.81430   0.82494   0.83188   0.83770   0.84204
 Alpha virt. eigenvalues --    0.84640   0.84932   0.86216   0.86465   0.87523
 Alpha virt. eigenvalues --    0.87768   0.88263   0.89854   0.90085   0.90363
 Alpha virt. eigenvalues --    0.91150   0.91637   0.92519   0.93023   0.93520
 Alpha virt. eigenvalues --    0.93620   0.94671   0.95120   0.95570   0.95842
 Alpha virt. eigenvalues --    0.97229   0.97699   0.97774   0.98316   0.98543
 Alpha virt. eigenvalues --    1.00140   1.00439   1.01583   1.01904   1.02209
 Alpha virt. eigenvalues --    1.03013   1.04225   1.06442   1.07107   1.07435
 Alpha virt. eigenvalues --    1.08753   1.09276   1.09691   1.10817   1.13937
 Alpha virt. eigenvalues --    1.15152   1.15984   1.16494   1.18277   1.18820
 Alpha virt. eigenvalues --    1.19408   1.19441   1.23907   1.24296   1.24542
 Alpha virt. eigenvalues --    1.24554   1.26350   1.26472   1.26830   1.29180
 Alpha virt. eigenvalues --    1.29280   1.29875   1.31205   1.33589   1.33997
 Alpha virt. eigenvalues --    1.36153   1.36157   1.36302   1.38655   1.40013
 Alpha virt. eigenvalues --    1.41397   1.41502   1.42432   1.43032   1.44972
 Alpha virt. eigenvalues --    1.45165   1.45604   1.46349   1.48053   1.48311
 Alpha virt. eigenvalues --    1.49454   1.49826   1.50316   1.50321   1.51012
 Alpha virt. eigenvalues --    1.51392   1.52535   1.53753   1.57341   1.57631
 Alpha virt. eigenvalues --    1.59131   1.61297   1.64684   1.65306   1.65684
 Alpha virt. eigenvalues --    1.69703   1.72023   1.72645   1.76285   1.77221
 Alpha virt. eigenvalues --    1.77980   1.80289   1.80557   1.82056   1.83003
 Alpha virt. eigenvalues --    1.86216   1.86693   1.87511   1.87945   1.88293
 Alpha virt. eigenvalues --    1.88564   1.90703   1.91313   1.91948   1.94179
 Alpha virt. eigenvalues --    1.95209   1.95773   1.96729   1.97185   1.97867
 Alpha virt. eigenvalues --    1.98291   1.98540   1.99340   1.99572   1.99694
 Alpha virt. eigenvalues --    2.00240   2.01656   2.03363   2.03760   2.05141
 Alpha virt. eigenvalues --    2.05833   2.07188   2.08008   2.08709   2.11793
 Alpha virt. eigenvalues --    2.12520   2.13810   2.14762   2.15129   2.16171
 Alpha virt. eigenvalues --    2.16201   2.16489   2.19087   2.19590   2.19767
 Alpha virt. eigenvalues --    2.20674   2.21116   2.21581   2.22701   2.23483
 Alpha virt. eigenvalues --    2.24433   2.25858   2.26866   2.27744   2.27821
 Alpha virt. eigenvalues --    2.28198   2.28284   2.28388   2.29430   2.32813
 Alpha virt. eigenvalues --    2.34537   2.38159   2.39844   2.40637   2.40768
 Alpha virt. eigenvalues --    2.42429   2.43812   2.44587   2.47045   2.47217
 Alpha virt. eigenvalues --    2.51446   2.53248   2.57169   2.58709   2.58803
 Alpha virt. eigenvalues --    2.58900   2.61044   2.61497   2.61599   2.64693
 Alpha virt. eigenvalues --    2.64761   2.66419   2.68311   2.68931   2.69198
 Alpha virt. eigenvalues --    2.69298   2.72422   2.72808   2.76041   2.76317
 Alpha virt. eigenvalues --    2.76753   2.76867   2.77639   2.78613   2.80708
 Alpha virt. eigenvalues --    2.83541   2.85417   2.87734   2.89243   2.93137
 Alpha virt. eigenvalues --    2.93417   2.97393   2.97940   3.00157   3.00575
 Alpha virt. eigenvalues --    3.06229   3.06649   3.16631   3.19904   3.20257
 Alpha virt. eigenvalues --    3.30485   3.39291   3.47567   3.48131   3.51700
 Alpha virt. eigenvalues --    3.54570   3.56496   5.55276   5.56663   5.57387
 Alpha virt. eigenvalues --    5.59977   5.61100   5.61236   5.63329  45.70223
 Alpha virt. eigenvalues --   45.85287  45.93195  63.01058
  Beta  occ. eigenvalues --  -14.45194 -14.45194 -14.44899 -14.44899 -10.27941
  Beta  occ. eigenvalues --  -10.27940 -10.27427 -10.27427 -10.27360 -10.27360
  Beta  occ. eigenvalues --  -10.27233 -10.27233 -10.26245 -10.26245 -10.23617
  Beta  occ. eigenvalues --  -10.23617 -10.23517 -10.23517 -10.23059 -10.23059
  Beta  occ. eigenvalues --  -10.22922 -10.22922 -10.22241 -10.22231 -10.22126
  Beta  occ. eigenvalues --  -10.21565  -3.85982  -2.37130  -2.36903  -2.34194
  Beta  occ. eigenvalues --   -1.05712  -1.05615  -0.97658  -0.97292  -0.88058
  Beta  occ. eigenvalues --   -0.87649  -0.85320  -0.80678  -0.78971  -0.77650
  Beta  occ. eigenvalues --   -0.77647  -0.75398  -0.74729  -0.73255  -0.72041
  Beta  occ. eigenvalues --   -0.67065  -0.65623  -0.64193  -0.64115  -0.62687
  Beta  occ. eigenvalues --   -0.61450  -0.58731  -0.57620  -0.56707  -0.54027
  Beta  occ. eigenvalues --   -0.53149  -0.52137  -0.49401  -0.49326  -0.49095
  Beta  occ. eigenvalues --   -0.49042  -0.48367  -0.47163  -0.46640  -0.45956
  Beta  occ. eigenvalues --   -0.45683  -0.45314  -0.44877  -0.44816  -0.44131
  Beta  occ. eigenvalues --   -0.42648  -0.41786  -0.40983  -0.38636  -0.38592
  Beta  occ. eigenvalues --   -0.38127  -0.37262  -0.37000  -0.36792  -0.36778
  Beta  occ. eigenvalues --   -0.36091  -0.35006  -0.33873  -0.33418  -0.31537
  Beta  occ. eigenvalues --   -0.29890  -0.27605  -0.26545  -0.25777  -0.24937
  Beta  occ. eigenvalues --   -0.23786  -0.23628  -0.21803  -0.20098  -0.19813
  Beta  occ. eigenvalues --   -0.19587
  Beta virt. eigenvalues --   -0.04945  -0.04080  -0.00710  -0.00633  -0.00055
  Beta virt. eigenvalues --    0.01279   0.01649   0.02453   0.03583   0.05487
  Beta virt. eigenvalues --    0.05784   0.05915   0.07823   0.09185   0.09344
  Beta virt. eigenvalues --    0.10264   0.10845   0.12716   0.13086   0.13866
  Beta virt. eigenvalues --    0.14158   0.15334   0.15344   0.15978   0.16019
  Beta virt. eigenvalues --    0.16630   0.16676   0.16948   0.17928   0.18157
  Beta virt. eigenvalues --    0.18455   0.18909   0.19624   0.19868   0.20161
  Beta virt. eigenvalues --    0.21722   0.21757   0.22032   0.22765   0.22807
  Beta virt. eigenvalues --    0.23962   0.25729   0.26211   0.26715   0.27192
  Beta virt. eigenvalues --    0.27748   0.28263   0.28988   0.29217   0.31139
  Beta virt. eigenvalues --    0.31525   0.31912   0.33206   0.33244   0.34607
  Beta virt. eigenvalues --    0.34831   0.36318   0.37552   0.37715   0.39392
  Beta virt. eigenvalues --    0.39772   0.41185   0.42411   0.44103   0.44951
  Beta virt. eigenvalues --    0.46137   0.47093   0.48273   0.49384   0.51521
  Beta virt. eigenvalues --    0.51882   0.52200   0.53865   0.54121   0.56221
  Beta virt. eigenvalues --    0.56278   0.56638   0.57038   0.57105   0.58076
  Beta virt. eigenvalues --    0.58577   0.58840   0.59136   0.59493   0.60351
  Beta virt. eigenvalues --    0.61517   0.61632   0.61736   0.62897   0.63330
  Beta virt. eigenvalues --    0.63408   0.63595   0.63682   0.63730   0.64357
  Beta virt. eigenvalues --    0.64458   0.65156   0.65445   0.66236   0.66711
  Beta virt. eigenvalues --    0.67401   0.67732   0.68432   0.68666   0.68732
  Beta virt. eigenvalues --    0.71037   0.72433   0.72448   0.73694   0.74959
  Beta virt. eigenvalues --    0.75529   0.76390   0.77543   0.78554   0.79682
  Beta virt. eigenvalues --    0.80320   0.81309   0.81665   0.82705   0.83253
  Beta virt. eigenvalues --    0.84179   0.84322   0.84695   0.85183   0.86445
  Beta virt. eigenvalues --    0.86954   0.87531   0.87781   0.88273   0.90110
  Beta virt. eigenvalues --    0.90127   0.90422   0.91345   0.91785   0.92590
  Beta virt. eigenvalues --    0.93086   0.93527   0.93651   0.95461   0.95604
  Beta virt. eigenvalues --    0.96265   0.96390   0.97228   0.97785   0.98107
  Beta virt. eigenvalues --    0.98392   0.98538   1.00141   1.00537   1.01639
  Beta virt. eigenvalues --    1.01957   1.02258   1.03072   1.04306   1.06542
  Beta virt. eigenvalues --    1.07158   1.08820   1.08878   1.09707   1.11158
  Beta virt. eigenvalues --    1.14008   1.15253   1.16013   1.16132   1.16516
  Beta virt. eigenvalues --    1.18309   1.18850   1.19474   1.19516   1.24039
  Beta virt. eigenvalues --    1.24491   1.24604   1.24635   1.26531   1.26751
  Beta virt. eigenvalues --    1.27140   1.29362   1.29479   1.30047   1.31206
  Beta virt. eigenvalues --    1.33976   1.34300   1.36309   1.36439   1.36599
  Beta virt. eigenvalues --    1.38814   1.40360   1.41638   1.41825   1.42962
  Beta virt. eigenvalues --    1.43137   1.44950   1.45261   1.45756   1.46524
  Beta virt. eigenvalues --    1.48252   1.48416   1.49637   1.49843   1.50421
  Beta virt. eigenvalues --    1.50427   1.51277   1.51624   1.53021   1.55027
  Beta virt. eigenvalues --    1.57579   1.57610   1.59996   1.61430   1.64952
  Beta virt. eigenvalues --    1.65939   1.65969   1.69776   1.72487   1.72802
  Beta virt. eigenvalues --    1.76508   1.77199   1.78249   1.80497   1.80534
  Beta virt. eigenvalues --    1.82146   1.83101   1.86405   1.86807   1.87526
  Beta virt. eigenvalues --    1.88023   1.88235   1.88530   1.90938   1.91354
  Beta virt. eigenvalues --    1.92014   1.94204   1.95245   1.95816   1.96825
  Beta virt. eigenvalues --    1.97224   1.97889   1.98423   1.98660   1.99369
  Beta virt. eigenvalues --    1.99765   1.99830   2.00283   2.01724   2.03432
  Beta virt. eigenvalues --    2.03763   2.05314   2.06011   2.07332   2.08326
  Beta virt. eigenvalues --    2.08737   2.11846   2.12691   2.14202   2.14841
  Beta virt. eigenvalues --    2.15160   2.16240   2.16370   2.16533   2.19196
  Beta virt. eigenvalues --    2.19866   2.19923   2.20755   2.21200   2.21688
  Beta virt. eigenvalues --    2.22982   2.23899   2.24620   2.26087   2.27107
  Beta virt. eigenvalues --    2.27954   2.27981   2.28294   2.28368   2.28391
  Beta virt. eigenvalues --    2.29598   2.32981   2.34957   2.38346   2.39998
  Beta virt. eigenvalues --    2.40782   2.41045   2.44228   2.44483   2.47262
  Beta virt. eigenvalues --    2.47455   2.48461   2.51487   2.53306   2.57348
  Beta virt. eigenvalues --    2.58679   2.58902   2.59174   2.61193   2.61674
  Beta virt. eigenvalues --    2.61822   2.64889   2.65020   2.66524   2.68678
  Beta virt. eigenvalues --    2.69043   2.69312   2.69336   2.72955   2.74369
  Beta virt. eigenvalues --    2.76167   2.76457   2.76886   2.77654   2.78588
  Beta virt. eigenvalues --    2.78996   2.80787   2.83595   2.85804   2.88005
  Beta virt. eigenvalues --    2.89297   2.93212   2.94280   2.97760   2.97916
  Beta virt. eigenvalues --    3.00205   3.01217   3.06399   3.06850   3.16721
  Beta virt. eigenvalues --    3.20210   3.20438   3.30328   3.39388   3.48157
  Beta virt. eigenvalues --    3.48325   3.51899   3.54471   3.59219   5.61544
  Beta virt. eigenvalues --    5.63404   5.63610   5.63991   5.65342   5.67876
  Beta virt. eigenvalues --    5.69453  45.80759  45.94356  46.00557  63.07667
          Condensed to atoms (all electrons):
               1          2          3          4          5          6
     1  C    5.236448   0.491371  -0.066084  -0.054723  -0.066084   0.491371
     2  C    0.491371   4.575866   0.527161  -0.014384  -0.036702  -0.016032
     3  C   -0.066084   0.527161   5.045155   0.526476  -0.030691  -0.036703
     4  C   -0.054723  -0.014384   0.526476   4.911756   0.526476  -0.014384
     5  C   -0.066084  -0.036702  -0.030691   0.526476   5.045156   0.527160
     6  C    0.491371  -0.016032  -0.036703  -0.014384   0.527160   4.575862
     7  H    0.005839  -0.039519   0.345997  -0.037304   0.003575   0.000656
     8  H    0.001608   0.002769  -0.036345   0.364122  -0.036345   0.002769
     9  H    0.005839   0.000656   0.003575  -0.037303   0.345997  -0.039519
    10  C    0.006706  -0.000027   0.000001   0.000148  -0.005907  -0.051343
    11  C    0.012310   0.002311  -0.000042   0.000056   0.002552  -0.070609
    12  C   -0.000762   0.000001  -0.000000   0.000001   0.000127   0.008443
    13  C    0.000189   0.000000  -0.000001   0.000060   0.002296  -0.005130
    14  C    0.000001  -0.000000   0.000000  -0.000000   0.000002  -0.000036
    15  C    0.000002  -0.000000   0.000000  -0.000001   0.000077   0.000082
    16  H   -0.000031   0.000000   0.000001   0.000116   0.000254   0.000805
    17  C   -0.000000   0.000000  -0.000000   0.000000  -0.000001  -0.000001
    18  H   -0.000000   0.000000   0.000000   0.000000  -0.000000   0.000003
    19  H   -0.000000   0.000000  -0.000000   0.000000   0.000002  -0.000003
    20  H    0.000000  -0.000000   0.000000  -0.000000  -0.000000  -0.000000
    21  C    0.006706  -0.051343  -0.005907   0.000148   0.000001  -0.000027
    22  C    0.012309  -0.070608   0.002552   0.000056  -0.000042   0.002311
    23  C   -0.000762   0.008443   0.000127   0.000001  -0.000000   0.000001
    24  C    0.000189  -0.005130   0.002296   0.000060  -0.000001   0.000000
    25  C    0.000001  -0.000036   0.000002  -0.000000   0.000000  -0.000000
    26  C    0.000002   0.000082   0.000077  -0.000001   0.000000  -0.000000
    27  H   -0.000031   0.000805   0.000254   0.000116   0.000001   0.000000
    28  C   -0.000000  -0.000001  -0.000001   0.000000  -0.000000   0.000000
    29  H   -0.000000   0.000003  -0.000000   0.000000   0.000000   0.000000
    30  H   -0.000000  -0.000003   0.000002   0.000000  -0.000000   0.000000
    31  H    0.000000  -0.000000  -0.000000  -0.000000   0.000000  -0.000000
    32  N   -0.038532   0.284169  -0.070342   0.004899   0.000103   0.005465
    33  N    0.001345   0.006169  -0.000182   0.000002   0.000000  -0.000034
    34  N   -0.038533   0.005465   0.000103   0.004899  -0.070342   0.284171
    35  N    0.001345  -0.000034   0.000000   0.000002  -0.000182   0.006169
    36  C   -0.000013   0.000000  -0.000000  -0.000000   0.000002  -0.000068
    37  H   -0.000000  -0.000000   0.000000   0.000000  -0.000000   0.000004
    38  H   -0.000000  -0.000000   0.000000   0.000000  -0.000000   0.000004
    39  H   -0.000019   0.000001   0.000000  -0.000000   0.000000  -0.000010
    40  C   -0.000013  -0.000068   0.000002  -0.000000  -0.000000   0.000000
    41  H   -0.000000   0.000004  -0.000000   0.000000   0.000000  -0.000000
    42  H   -0.000000   0.000004  -0.000000   0.000000   0.000000  -0.000000
    43  H   -0.000019  -0.000010   0.000000  -0.000000   0.000000   0.000001
    44  Co   0.262463  -0.064789   0.003943   0.003392   0.003943  -0.064789
               7          8          9         10         11         12
     1  C    0.005839   0.001608   0.005839   0.006706   0.012310  -0.000762
     2  C   -0.039519   0.002769   0.000656  -0.000027   0.002311   0.000001
     3  C    0.345997  -0.036345   0.003575   0.000001  -0.000042  -0.000000
     4  C   -0.037304   0.364122  -0.037303   0.000148   0.000056   0.000001
     5  C    0.003575  -0.036345   0.345997  -0.005907   0.002552   0.000127
     6  C    0.000656   0.002769  -0.039519  -0.051343  -0.070609   0.008443
     7  H    0.554716  -0.004168  -0.000088  -0.000000  -0.000000   0.000000
     8  H   -0.004168   0.551269  -0.004168  -0.000003   0.000001  -0.000000
     9  H   -0.000088  -0.004168   0.554716   0.000440  -0.000181  -0.000042
    10  C   -0.000000  -0.000003   0.000440   4.640738  -0.065740   0.507547
    11  C   -0.000000   0.000001  -0.000181  -0.065740   4.840105  -0.057407
    12  C    0.000000  -0.000000  -0.000042   0.507547  -0.057407   4.649105
    13  C   -0.000000   0.000003  -0.000163   0.548004   0.004753  -0.057529
    14  C   -0.000000   0.000000   0.000001  -0.048170   0.005713   0.536643
    15  C   -0.000000   0.000000   0.000126  -0.005665  -0.000066  -0.037627
    16  H    0.000000  -0.000011   0.006246  -0.034316  -0.000157   0.003746
    17  C    0.000000  -0.000000   0.000001  -0.039578  -0.000080  -0.008757
    18  H    0.000000  -0.000000  -0.000000   0.003971  -0.000211  -0.037852
    19  H    0.000000   0.000000  -0.000009   0.001930   0.000003   0.000941
    20  H   -0.000000  -0.000000   0.000000   0.000914   0.000003   0.002355
    21  C    0.000440  -0.000003  -0.000000  -0.000000  -0.000007   0.000000
    22  C   -0.000181   0.000001  -0.000000  -0.000007  -0.014715  -0.000002
    23  C   -0.000042  -0.000000   0.000000   0.000000  -0.000002  -0.000000
    24  C   -0.000163   0.000003  -0.000000   0.000000   0.000000  -0.000000
    25  C    0.000001   0.000000  -0.000000  -0.000000   0.000000   0.000000
    26  C    0.000126   0.000000  -0.000000  -0.000000  -0.000000   0.000000
    27  H    0.006246  -0.000011   0.000000   0.000000   0.000000  -0.000000
    28  C    0.000001  -0.000000   0.000000   0.000000  -0.000000  -0.000000
    29  H   -0.000000  -0.000000   0.000000   0.000000   0.000000  -0.000000
    30  H   -0.000009   0.000000   0.000000   0.000000   0.000000   0.000000
    31  H    0.000000  -0.000000  -0.000000   0.000000   0.000000   0.000000
    32  N   -0.003901  -0.000114   0.000007   0.000000   0.000254   0.000000
    33  N    0.000002  -0.000000  -0.000000   0.000000   0.000025   0.000000
    34  N    0.000007  -0.000114  -0.003901   0.256074   0.340345  -0.036974
    35  N   -0.000000  -0.000000   0.000002  -0.045971   0.304485   0.274032
    36  C   -0.000000   0.000000  -0.000000   0.005801  -0.042211  -0.048327
    37  H    0.000000  -0.000000   0.000000  -0.000139   0.000733  -0.001225
    38  H    0.000000  -0.000000   0.000000  -0.000139   0.000727  -0.001221
    39  H    0.000000   0.000000   0.000000   0.000020  -0.000533   0.002563
    40  C   -0.000000   0.000000  -0.000000   0.000000   0.000016   0.000000
    41  H    0.000000  -0.000000   0.000000  -0.000000  -0.000000  -0.000000
    42  H    0.000000  -0.000000   0.000000  -0.000000  -0.000000  -0.000000
    43  H    0.000000   0.000000   0.000000  -0.000000  -0.000002  -0.000000
    44  Co  -0.000591   0.000106  -0.000591   0.008139   0.382035   0.004208
              13         14         15         16         17         18
     1  C    0.000189   0.000001   0.000002  -0.000031  -0.000000  -0.000000
     2  C    0.000000  -0.000000  -0.000000   0.000000   0.000000   0.000000
     3  C   -0.000001   0.000000   0.000000   0.000001  -0.000000   0.000000
     4  C    0.000060  -0.000000  -0.000001   0.000116   0.000000   0.000000
     5  C    0.002296   0.000002   0.000077   0.000254  -0.000001  -0.000000
     6  C   -0.005130  -0.000036   0.000082   0.000805  -0.000001   0.000003
     7  H   -0.000000  -0.000000  -0.000000   0.000000   0.000000   0.000000
     8  H    0.000003   0.000000   0.000000  -0.000011  -0.000000  -0.000000
     9  H   -0.000163   0.000001   0.000126   0.006246   0.000001  -0.000000
    10  C    0.548004  -0.048170  -0.005665  -0.034316  -0.039578   0.003971
    11  C    0.004753   0.005713  -0.000066  -0.000157  -0.000080  -0.000211
    12  C   -0.057529   0.536643  -0.037627   0.003746  -0.008757  -0.037852
    13  C    5.031140  -0.044663   0.503033   0.354963  -0.036831   0.000305
    14  C   -0.044663   5.042722  -0.037325   0.000450   0.511971   0.362189
    15  C    0.503033  -0.037325   4.897373  -0.034978   0.563751   0.003796
    16  H    0.354963   0.000450  -0.034978   0.516685   0.003674   0.000013
    17  C   -0.036831   0.511971   0.563751   0.003674   4.885019  -0.035022
    18  H    0.000305   0.362189   0.003796   0.000013  -0.035022   0.535957
    19  H   -0.036014   0.003927   0.368961  -0.003909  -0.035870  -0.000143
    20  H    0.004111  -0.037219  -0.036816  -0.000150   0.368525  -0.004149
    21  C    0.000000  -0.000000  -0.000000   0.000000   0.000000   0.000000
    22  C    0.000000   0.000000  -0.000000   0.000000  -0.000000   0.000000
    23  C   -0.000000   0.000000   0.000000  -0.000000  -0.000000  -0.000000
    24  C    0.000000  -0.000000  -0.000000   0.000000   0.000000   0.000000
    25  C   -0.000000  -0.000000   0.000000  -0.000000  -0.000000   0.000000
    26  C   -0.000000   0.000000  -0.000000  -0.000000   0.000000   0.000000
    27  H    0.000000  -0.000000  -0.000000   0.000000   0.000000  -0.000000
    28  C    0.000000  -0.000000   0.000000   0.000000   0.000000   0.000000
    29  H    0.000000   0.000000   0.000000  -0.000000   0.000000  -0.000000
    30  H   -0.000000  -0.000000   0.000000  -0.000000   0.000000   0.000000
    31  H   -0.000000   0.000000   0.000000  -0.000000   0.000000   0.000000
    32  N   -0.000000  -0.000000   0.000000   0.000000   0.000000  -0.000000
    33  N    0.000000  -0.000000   0.000000   0.000000   0.000000  -0.000000
    34  N   -0.080354   0.009184   0.005247  -0.005294  -0.000164  -0.000096
    35  N    0.009271  -0.085568  -0.000148  -0.000096   0.005433  -0.007479
    36  C   -0.000112  -0.003207   0.000009   0.000003  -0.000115   0.004354
    37  H   -0.000009   0.002822  -0.000002  -0.000000  -0.000008   0.000525
    38  H   -0.000009   0.002819  -0.000002  -0.000000  -0.000008   0.000523
    39  H    0.000006   0.000017  -0.000000  -0.000000   0.000001  -0.000032
    40  C    0.000000   0.000000  -0.000000   0.000000   0.000000  -0.000000
    41  H    0.000000   0.000000  -0.000000   0.000000  -0.000000  -0.000000
    42  H    0.000000   0.000000  -0.000000   0.000000  -0.000000  -0.000000
    43  H   -0.000000   0.000000  -0.000000   0.000000  -0.000000   0.000000
    44  Co  -0.000530  -0.000563  -0.000014   0.000051   0.000016   0.000024
              19         20         21         22         23         24
     1  C   -0.000000   0.000000   0.006706   0.012309  -0.000762   0.000189
     2  C    0.000000  -0.000000  -0.051343  -0.070608   0.008443  -0.005130
     3  C   -0.000000   0.000000  -0.005907   0.002552   0.000127   0.002296
     4  C    0.000000  -0.000000   0.000148   0.000056   0.000001   0.000060
     5  C    0.000002  -0.000000   0.000001  -0.000042  -0.000000  -0.000001
     6  C   -0.000003  -0.000000  -0.000027   0.002311   0.000001   0.000000
     7  H    0.000000  -0.000000   0.000440  -0.000181  -0.000042  -0.000163
     8  H    0.000000  -0.000000  -0.000003   0.000001  -0.000000   0.000003
     9  H   -0.000009   0.000000  -0.000000  -0.000000   0.000000  -0.000000
    10  C    0.001930   0.000914  -0.000000  -0.000007   0.000000   0.000000
    11  C    0.000003   0.000003  -0.000007  -0.014715  -0.000002   0.000000
    12  C    0.000941   0.002355   0.000000  -0.000002  -0.000000  -0.000000
    13  C   -0.036014   0.004111   0.000000   0.000000  -0.000000   0.000000
    14  C    0.003927  -0.037219  -0.000000   0.000000   0.000000  -0.000000
    15  C    0.368961  -0.036816  -0.000000  -0.000000   0.000000  -0.000000
    16  H   -0.003909  -0.000150   0.000000   0.000000  -0.000000   0.000000
    17  C   -0.035870   0.368525   0.000000  -0.000000  -0.000000   0.000000
    18  H   -0.000143  -0.004149   0.000000   0.000000  -0.000000   0.000000
    19  H    0.533869  -0.004716   0.000000   0.000000   0.000000  -0.000000
    20  H   -0.004716   0.538755   0.000000   0.000000   0.000000  -0.000000
    21  C    0.000000   0.000000   4.640756  -0.065741   0.507547   0.548001
    22  C    0.000000   0.000000  -0.065741   4.840105  -0.057405   0.004753
    23  C    0.000000   0.000000   0.507547  -0.057405   4.649088  -0.057527
    24  C   -0.000000  -0.000000   0.548001   0.004753  -0.057527   5.031126
    25  C   -0.000000   0.000000  -0.048172   0.005713   0.536647  -0.044662
    26  C    0.000000   0.000000  -0.005666  -0.000066  -0.037627   0.503038
    27  H   -0.000000  -0.000000  -0.034317  -0.000157   0.003746   0.354964
    28  C    0.000000   0.000000  -0.039578  -0.000080  -0.008756  -0.036832
    29  H    0.000000   0.000000   0.003971  -0.000211  -0.037851   0.000305
    30  H    0.000000   0.000000   0.001930   0.000003   0.000941  -0.036015
    31  H    0.000000   0.000000   0.000914   0.000003   0.002355   0.004111
    32  N    0.000000   0.000000   0.256076   0.340345  -0.036975  -0.080352
    33  N   -0.000000  -0.000000  -0.045971   0.304483   0.274031   0.009270
    34  N   -0.000095   0.000003   0.000000   0.000254   0.000000  -0.000000
    35  N    0.000004  -0.000101   0.000000   0.000025   0.000000   0.000000
    36  C   -0.000000  -0.000002   0.000000   0.000016   0.000000   0.000000
    37  H   -0.000000   0.000000  -0.000000  -0.000000  -0.000000   0.000000
    38  H   -0.000000   0.000000  -0.000000  -0.000000  -0.000000   0.000000
    39  H   -0.000000  -0.000000  -0.000000  -0.000002  -0.000000  -0.000000
    40  C    0.000000  -0.000000   0.005801  -0.042211  -0.048327  -0.000112
    41  H   -0.000000   0.000000  -0.000139   0.000727  -0.001221  -0.000009
    42  H   -0.000000   0.000000  -0.000139   0.000733  -0.001225  -0.000009
    43  H    0.000000   0.000000   0.000020  -0.000533   0.002563   0.000006
    44  Co   0.000016  -0.000002   0.008139   0.382035   0.004208  -0.000530
              25         26         27         28         29         30
     1  C    0.000001   0.000002  -0.000031  -0.000000  -0.000000  -0.000000
     2  C   -0.000036   0.000082   0.000805  -0.000001   0.000003  -0.000003
     3  C    0.000002   0.000077   0.000254  -0.000001  -0.000000   0.000002
     4  C   -0.000000  -0.000001   0.000116   0.000000   0.000000   0.000000
     5  C    0.000000   0.000000   0.000001  -0.000000   0.000000  -0.000000
     6  C   -0.000000  -0.000000   0.000000   0.000000   0.000000   0.000000
     7  H    0.000001   0.000126   0.006246   0.000001  -0.000000  -0.000009
     8  H    0.000000   0.000000  -0.000011  -0.000000  -0.000000   0.000000
     9  H   -0.000000  -0.000000   0.000000   0.000000   0.000000   0.000000
    10  C   -0.000000  -0.000000   0.000000   0.000000   0.000000   0.000000
    11  C    0.000000  -0.000000   0.000000  -0.000000   0.000000   0.000000
    12  C    0.000000   0.000000  -0.000000  -0.000000  -0.000000   0.000000
    13  C   -0.000000  -0.000000   0.000000   0.000000   0.000000  -0.000000
    14  C   -0.000000   0.000000  -0.000000  -0.000000   0.000000  -0.000000
    15  C    0.000000  -0.000000  -0.000000   0.000000   0.000000   0.000000
    16  H   -0.000000  -0.000000   0.000000   0.000000  -0.000000  -0.000000
    17  C   -0.000000   0.000000   0.000000   0.000000   0.000000   0.000000
    18  H    0.000000   0.000000  -0.000000   0.000000  -0.000000   0.000000
    19  H   -0.000000   0.000000  -0.000000   0.000000   0.000000   0.000000
    20  H    0.000000   0.000000  -0.000000   0.000000   0.000000   0.000000
    21  C   -0.048172  -0.005666  -0.034317  -0.039578   0.003971   0.001930
    22  C    0.005713  -0.000066  -0.000157  -0.000080  -0.000211   0.000003
    23  C    0.536647  -0.037627   0.003746  -0.008756  -0.037851   0.000941
    24  C   -0.044662   0.503038   0.354964  -0.036832   0.000305  -0.036015
    25  C    5.042734  -0.037325   0.000450   0.511965   0.362189   0.003927
    26  C   -0.037325   4.897367  -0.034978   0.563752   0.003796   0.368960
    27  H    0.000450  -0.034978   0.516685   0.003674   0.000013  -0.003909
    28  C    0.511965   0.563752   0.003674   4.885024  -0.035022  -0.035871
    29  H    0.362189   0.003796   0.000013  -0.035022   0.535956  -0.000143
    30  H    0.003927   0.368960  -0.003909  -0.035871  -0.000143   0.533872
    31  H   -0.037218  -0.036815  -0.000150   0.368526  -0.004149  -0.004716
    32  N    0.009184   0.005247  -0.005294  -0.000164  -0.000096  -0.000095
    33  N   -0.085570  -0.000148  -0.000096   0.005433  -0.007479   0.000004
    34  N   -0.000000   0.000000   0.000000   0.000000  -0.000000   0.000000
    35  N   -0.000000   0.000000   0.000000   0.000000  -0.000000  -0.000000
    36  C    0.000000  -0.000000   0.000000   0.000000  -0.000000   0.000000
    37  H    0.000000  -0.000000   0.000000  -0.000000  -0.000000  -0.000000
    38  H    0.000000  -0.000000   0.000000  -0.000000  -0.000000  -0.000000
    39  H    0.000000  -0.000000   0.000000  -0.000000   0.000000   0.000000
    40  C   -0.003207   0.000009   0.000003  -0.000115   0.004354  -0.000000
    41  H    0.002820  -0.000002  -0.000000  -0.000008   0.000523  -0.000000
    42  H    0.002822  -0.000002  -0.000000  -0.000008   0.000525  -0.000000
    43  H    0.000017  -0.000000  -0.000000   0.000001  -0.000032  -0.000000
    44  Co  -0.000563  -0.000014   0.000051   0.000016   0.000024   0.000016
              31         32         33         34         35         36
     1  C    0.000000  -0.038532   0.001345  -0.038533   0.001345  -0.000013
     2  C   -0.000000   0.284169   0.006169   0.005465  -0.000034   0.000000
     3  C   -0.000000  -0.070342  -0.000182   0.000103   0.000000  -0.000000
     4  C   -0.000000   0.004899   0.000002   0.004899   0.000002  -0.000000
     5  C    0.000000   0.000103   0.000000  -0.070342  -0.000182   0.000002
     6  C   -0.000000   0.005465  -0.000034   0.284171   0.006169  -0.000068
     7  H    0.000000  -0.003901   0.000002   0.000007  -0.000000  -0.000000
     8  H   -0.000000  -0.000114  -0.000000  -0.000114  -0.000000   0.000000
     9  H   -0.000000   0.000007  -0.000000  -0.003901   0.000002  -0.000000
    10  C    0.000000   0.000000   0.000000   0.256074  -0.045971   0.005801
    11  C    0.000000   0.000254   0.000025   0.340345   0.304485  -0.042211
    12  C    0.000000   0.000000   0.000000  -0.036974   0.274032  -0.048327
    13  C   -0.000000  -0.000000   0.000000  -0.080354   0.009271  -0.000112
    14  C    0.000000  -0.000000  -0.000000   0.009184  -0.085568  -0.003207
    15  C    0.000000   0.000000   0.000000   0.005247  -0.000148   0.000009
    16  H   -0.000000   0.000000   0.000000  -0.005294  -0.000096   0.000003
    17  C    0.000000   0.000000   0.000000  -0.000164   0.005433  -0.000115
    18  H    0.000000  -0.000000  -0.000000  -0.000096  -0.007479   0.004354
    19  H    0.000000   0.000000  -0.000000  -0.000095   0.000004  -0.000000
    20  H    0.000000   0.000000  -0.000000   0.000003  -0.000101  -0.000002
    21  C    0.000914   0.256076  -0.045971   0.000000   0.000000   0.000000
    22  C    0.000003   0.340345   0.304483   0.000254   0.000025   0.000016
    23  C    0.002355  -0.036975   0.274031   0.000000   0.000000   0.000000
    24  C    0.004111  -0.080352   0.009270  -0.000000   0.000000   0.000000
    25  C   -0.037218   0.009184  -0.085570  -0.000000  -0.000000   0.000000
    26  C   -0.036815   0.005247  -0.000148   0.000000   0.000000  -0.000000
    27  H   -0.000150  -0.005294  -0.000096   0.000000   0.000000   0.000000
    28  C    0.368526  -0.000164   0.005433   0.000000   0.000000   0.000000
    29  H   -0.004149  -0.000096  -0.007479  -0.000000  -0.000000  -0.000000
    30  H   -0.004716  -0.000095   0.000004   0.000000  -0.000000   0.000000
    31  H    0.538752   0.000003  -0.000101   0.000000  -0.000000  -0.000000
    32  N    0.000003   7.178034  -0.056165  -0.000060   0.000001  -0.000000
    33  N   -0.000101  -0.056165   7.050508   0.000001  -0.000000  -0.000000
    34  N    0.000000  -0.000060   0.000001   7.178042  -0.056165   0.004385
    35  N   -0.000000   0.000001  -0.000000  -0.056165   7.050500   0.301895
    36  C   -0.000000  -0.000000  -0.000000   0.004385   0.301895   5.052999
    37  H    0.000000   0.000000  -0.000000  -0.000068  -0.042756   0.377340
    38  H    0.000000   0.000000  -0.000000  -0.000068  -0.042758   0.377345
    39  H    0.000000  -0.000000   0.000001   0.000152  -0.032039   0.376701
    40  C   -0.000002   0.004385   0.301895  -0.000000  -0.000000   0.000000
    41  H    0.000000  -0.000068  -0.042759   0.000000  -0.000000  -0.000000
    42  H    0.000000  -0.000068  -0.042756   0.000000  -0.000000  -0.000000
    43  H   -0.000000   0.000152  -0.032039  -0.000000   0.000001  -0.000001
    44  Co  -0.000002  -0.077065  -0.053985  -0.077066  -0.053985  -0.003048
              37         38         39         40         41         42
     1  C   -0.000000  -0.000000  -0.000019  -0.000013  -0.000000  -0.000000
     2  C   -0.000000  -0.000000   0.000001  -0.000068   0.000004   0.000004
     3  C    0.000000   0.000000   0.000000   0.000002  -0.000000  -0.000000
     4  C    0.000000   0.000000  -0.000000  -0.000000   0.000000   0.000000
     5  C   -0.000000  -0.000000   0.000000  -0.000000   0.000000   0.000000
     6  C    0.000004   0.000004  -0.000010   0.000000  -0.000000  -0.000000
     7  H    0.000000   0.000000   0.000000  -0.000000   0.000000   0.000000
     8  H   -0.000000  -0.000000   0.000000   0.000000  -0.000000  -0.000000
     9  H    0.000000   0.000000   0.000000  -0.000000   0.000000   0.000000
    10  C   -0.000139  -0.000139   0.000020   0.000000  -0.000000  -0.000000
    11  C    0.000733   0.000727  -0.000533   0.000016  -0.000000  -0.000000
    12  C   -0.001225  -0.001221   0.002563   0.000000  -0.000000  -0.000000
    13  C   -0.000009  -0.000009   0.000006   0.000000   0.000000   0.000000
    14  C    0.002822   0.002819   0.000017   0.000000   0.000000   0.000000
    15  C   -0.000002  -0.000002  -0.000000  -0.000000  -0.000000  -0.000000
    16  H   -0.000000  -0.000000  -0.000000   0.000000   0.000000   0.000000
    17  C   -0.000008  -0.000008   0.000001   0.000000  -0.000000  -0.000000
    18  H    0.000525   0.000523  -0.000032  -0.000000  -0.000000  -0.000000
    19  H   -0.000000  -0.000000  -0.000000   0.000000  -0.000000  -0.000000
    20  H    0.000000   0.000000  -0.000000  -0.000000   0.000000   0.000000
    21  C   -0.000000  -0.000000  -0.000000   0.005801  -0.000139  -0.000139
    22  C   -0.000000  -0.000000  -0.000002  -0.042211   0.000727   0.000733
    23  C   -0.000000  -0.000000  -0.000000  -0.048327  -0.001221  -0.001225
    24  C    0.000000   0.000000  -0.000000  -0.000112  -0.000009  -0.000009
    25  C    0.000000   0.000000   0.000000  -0.003207   0.002820   0.002822
    26  C   -0.000000  -0.000000  -0.000000   0.000009  -0.000002  -0.000002
    27  H    0.000000   0.000000   0.000000   0.000003  -0.000000  -0.000000
    28  C   -0.000000  -0.000000  -0.000000  -0.000115  -0.000008  -0.000008
    29  H   -0.000000  -0.000000   0.000000   0.004354   0.000523   0.000525
    30  H   -0.000000  -0.000000   0.000000  -0.000000  -0.000000  -0.000000
    31  H    0.000000   0.000000   0.000000  -0.000002   0.000000   0.000000
    32  N    0.000000   0.000000  -0.000000   0.004385  -0.000068  -0.000068
    33  N   -0.000000  -0.000000   0.000001   0.301895  -0.042759  -0.042756
    34  N   -0.000068  -0.000068   0.000152  -0.000000   0.000000   0.000000
    35  N   -0.042756  -0.042758  -0.032039  -0.000000  -0.000000  -0.000000
    36  C    0.377340   0.377345   0.376701   0.000000  -0.000000  -0.000000
    37  H    0.526758  -0.040350  -0.026190  -0.000000  -0.000000   0.000000
    38  H   -0.040350   0.526758  -0.026199  -0.000000   0.000000  -0.000000
    39  H   -0.026190  -0.026199   0.481424  -0.000001   0.000000   0.000000
    40  C   -0.000000  -0.000000  -0.000001   5.052998   0.377345   0.377340
    41  H   -0.000000   0.000000   0.000000   0.377345   0.526760  -0.040350
    42  H    0.000000  -0.000000   0.000000   0.377340  -0.040350   0.526758
    43  H    0.000000   0.000000  -0.000022   0.376701  -0.026200  -0.026189
    44  Co   0.000967   0.000971   0.007548  -0.003048   0.000971   0.000966
              43         44
     1  C   -0.000019   0.262463
     2  C   -0.000010  -0.064789
     3  C    0.000000   0.003943
     4  C   -0.000000   0.003392
     5  C    0.000000   0.003943
     6  C    0.000001  -0.064789
     7  H    0.000000  -0.000591
     8  H    0.000000   0.000106
     9  H    0.000000  -0.000591
    10  C   -0.000000   0.008139
    11  C   -0.000002   0.382035
    12  C   -0.000000   0.004208
    13  C   -0.000000  -0.000530
    14  C    0.000000  -0.000563
    15  C   -0.000000  -0.000014
    16  H    0.000000   0.000051
    17  C   -0.000000   0.000016
    18  H    0.000000   0.000024
    19  H    0.000000   0.000016
    20  H    0.000000  -0.000002
    21  C    0.000020   0.008139
    22  C   -0.000533   0.382035
    23  C    0.002563   0.004208
    24  C    0.000006  -0.000530
    25  C    0.000017  -0.000563
    26  C   -0.000000  -0.000014
    27  H   -0.000000   0.000051
    28  C    0.000001   0.000016
    29  H   -0.000032   0.000024
    30  H   -0.000000   0.000016
    31  H   -0.000000  -0.000002
    32  N    0.000152  -0.077065
    33  N   -0.032039  -0.053985
    34  N   -0.000000  -0.077066
    35  N    0.000001  -0.053985
    36  C   -0.000001  -0.003048
    37  H    0.000000   0.000967
    38  H    0.000000   0.000971
    39  H   -0.000022   0.007548
    40  C    0.376701  -0.003048
    41  H   -0.026200   0.000971
    42  H   -0.026189   0.000966
    43  H    0.481424   0.007548
    44  Co   0.007548  16.315295
          Atomic-Atomic Spin Densities.
               1          2          3          4          5          6
     1  C   -0.345314  -0.003972   0.005384   0.007423   0.005384  -0.003972
     2  C   -0.003972   0.093535   0.003907  -0.002939   0.001086   0.001432
     3  C    0.005384   0.003907  -0.081003  -0.004884   0.000088   0.001086
     4  C    0.007423  -0.002939  -0.004884   0.102673  -0.004884  -0.002939
     5  C    0.005384   0.001086   0.000088  -0.004884  -0.081005   0.003907
     6  C   -0.003972   0.001432   0.001086  -0.002939   0.003907   0.093535
     7  H   -0.000841   0.000410   0.004038   0.001574  -0.000024  -0.000079
     8  H   -0.000185  -0.000010   0.000028   0.000598   0.000028  -0.000010
     9  H   -0.000841  -0.000079  -0.000024   0.001574   0.004038   0.000410
    10  C   -0.000303  -0.000018   0.000001   0.000020   0.000401  -0.000111
    11  C    0.005575  -0.000859   0.000006   0.000030  -0.000198  -0.006982
    12  C    0.000074   0.000000  -0.000000  -0.000000  -0.000012  -0.000009
    13  C    0.000013   0.000000  -0.000000   0.000002  -0.000269  -0.000345
    14  C    0.000000   0.000000  -0.000000   0.000000  -0.000001  -0.000020
    15  C   -0.000000   0.000000   0.000000  -0.000000   0.000003   0.000008
    16  H   -0.000001  -0.000000  -0.000000   0.000002   0.000070   0.000059
    17  C   -0.000000  -0.000000   0.000000  -0.000000   0.000000   0.000002
    18  H    0.000000  -0.000000  -0.000000   0.000000   0.000000   0.000000
    19  H    0.000000   0.000000  -0.000000  -0.000000   0.000000   0.000000
    20  H   -0.000000   0.000000  -0.000000  -0.000000  -0.000000  -0.000000
    21  C   -0.000303  -0.000110   0.000401   0.000020   0.000001  -0.000018
    22  C    0.005575  -0.006981  -0.000198   0.000030   0.000006  -0.000859
    23  C    0.000074  -0.000009  -0.000012  -0.000000  -0.000000   0.000000
    24  C    0.000013  -0.000345  -0.000269   0.000002  -0.000000   0.000000
    25  C    0.000000  -0.000020  -0.000001   0.000000  -0.000000   0.000000
    26  C   -0.000000   0.000008   0.000003  -0.000000   0.000000   0.000000
    27  H   -0.000001   0.000059   0.000070   0.000002  -0.000000  -0.000000
    28  C   -0.000000   0.000002   0.000000  -0.000000   0.000000  -0.000000
    29  H    0.000000   0.000000   0.000000   0.000000  -0.000000  -0.000000
    30  H    0.000000   0.000000   0.000000  -0.000000  -0.000000   0.000000
    31  H   -0.000000  -0.000000  -0.000000  -0.000000  -0.000000   0.000000
    32  N    0.001256   0.010481   0.003866   0.000086   0.000035  -0.000128
    33  N   -0.000653   0.000464  -0.000014  -0.000000  -0.000000   0.000003
    34  N    0.001256  -0.000128   0.000035   0.000086   0.003866   0.010481
    35  N   -0.000653   0.000003  -0.000000  -0.000000  -0.000014   0.000464
    36  C   -0.000016   0.000000  -0.000000  -0.000000  -0.000000  -0.000003
    37  H    0.000000  -0.000000   0.000000   0.000000  -0.000000  -0.000001
    38  H    0.000000  -0.000000   0.000000   0.000000  -0.000000  -0.000001
    39  H    0.000012  -0.000000   0.000000   0.000000   0.000000  -0.000000
    40  C   -0.000016  -0.000003  -0.000000  -0.000000  -0.000000   0.000000
    41  H    0.000000  -0.000001  -0.000000   0.000000   0.000000  -0.000000
    42  H    0.000000  -0.000001  -0.000000   0.000000   0.000000  -0.000000
    43  H    0.000012  -0.000000   0.000000   0.000000   0.000000  -0.000000
    44  Co   0.014184  -0.009958  -0.001693   0.001023  -0.001693  -0.009958
               7          8          9         10         11         12
     1  C   -0.000841  -0.000185  -0.000841  -0.000303   0.005575   0.000074
     2  C    0.000410  -0.000010  -0.000079  -0.000018  -0.000859   0.000000
     3  C    0.004038   0.000028  -0.000024   0.000001   0.000006  -0.000000
     4  C    0.001574   0.000598   0.001574   0.000020   0.000030  -0.000000
     5  C   -0.000024   0.000028   0.004038   0.000401  -0.000198  -0.000012
     6  C   -0.000079  -0.000010   0.000410  -0.000111  -0.006982  -0.000009
     7  H   -0.007415  -0.000190  -0.000020  -0.000000   0.000000  -0.000000
     8  H   -0.000190  -0.005308  -0.000190  -0.000000   0.000000   0.000000
     9  H   -0.000020  -0.000190  -0.007415  -0.000130   0.000016   0.000002
    10  C   -0.000000  -0.000000  -0.000130  -0.000648   0.001991  -0.001894
    11  C    0.000000   0.000000   0.000016   0.001991   0.225564  -0.002382
    12  C   -0.000000   0.000000   0.000002  -0.001894  -0.002382  -0.028523
    13  C    0.000000   0.000000   0.000161   0.004596   0.000244   0.000642
    14  C    0.000000   0.000000   0.000001   0.000909   0.000556  -0.000686
    15  C    0.000000   0.000000   0.000006  -0.000859  -0.000027   0.000211
    16  H   -0.000000  -0.000000  -0.000149  -0.000167  -0.000000  -0.000005
    17  C   -0.000000  -0.000000  -0.000000   0.000132  -0.000012  -0.000206
    18  H   -0.000000  -0.000000  -0.000000  -0.000010  -0.000002  -0.000058
    19  H   -0.000000  -0.000000  -0.000000   0.000002  -0.000000  -0.000007
    20  H    0.000000   0.000000   0.000000  -0.000004   0.000000   0.000013
    21  C   -0.000130  -0.000000  -0.000000  -0.000000   0.000001  -0.000000
    22  C    0.000016   0.000000   0.000000   0.000001   0.001876   0.000000
    23  C    0.000002   0.000000  -0.000000  -0.000000   0.000000   0.000000
    24  C    0.000161   0.000000   0.000000   0.000000   0.000000   0.000000
    25  C    0.000001   0.000000   0.000000   0.000000   0.000000   0.000000
    26  C    0.000006   0.000000   0.000000  -0.000000  -0.000000   0.000000
    27  H   -0.000149  -0.000000  -0.000000  -0.000000   0.000000  -0.000000
    28  C   -0.000000  -0.000000  -0.000000  -0.000000  -0.000000   0.000000
    29  H   -0.000000  -0.000000  -0.000000   0.000000   0.000000  -0.000000
    30  H   -0.000000  -0.000000  -0.000000  -0.000000  -0.000000   0.000000
    31  H    0.000000   0.000000   0.000000   0.000000  -0.000000  -0.000000
    32  N   -0.000545  -0.000002  -0.000002  -0.000000  -0.000048  -0.000000
    33  N    0.000002   0.000000   0.000000   0.000000  -0.000004   0.000000
    34  N   -0.000002  -0.000002  -0.000545  -0.001550  -0.029346   0.001503
    35  N    0.000000   0.000000   0.000002  -0.001125  -0.043008   0.008740
    36  C    0.000000   0.000000   0.000000  -0.000034   0.000752   0.000369
    37  H   -0.000000  -0.000000  -0.000000   0.000005   0.000481  -0.000165
    38  H   -0.000000  -0.000000  -0.000000   0.000005   0.000482  -0.000165
    39  H   -0.000000  -0.000000  -0.000000   0.000001  -0.000667  -0.000054
    40  C    0.000000   0.000000   0.000000   0.000000  -0.000000  -0.000000
    41  H   -0.000000  -0.000000  -0.000000   0.000000   0.000000  -0.000000
    42  H   -0.000000  -0.000000  -0.000000   0.000000   0.000000  -0.000000
    43  H   -0.000000  -0.000000  -0.000000  -0.000000   0.000001   0.000000
    44  Co   0.000350   0.000052   0.000350   0.001503   0.058170   0.000090
              13         14         15         16         17         18
     1  C    0.000013   0.000000  -0.000000  -0.000001  -0.000000   0.000000
     2  C    0.000000   0.000000   0.000000  -0.000000  -0.000000  -0.000000
     3  C   -0.000000  -0.000000   0.000000  -0.000000   0.000000  -0.000000
     4  C    0.000002   0.000000  -0.000000   0.000002  -0.000000   0.000000
     5  C   -0.000269  -0.000001   0.000003   0.000070   0.000000   0.000000
     6  C   -0.000345  -0.000020   0.000008   0.000059   0.000002   0.000000
     7  H    0.000000   0.000000   0.000000  -0.000000  -0.000000  -0.000000
     8  H    0.000000   0.000000   0.000000  -0.000000  -0.000000  -0.000000
     9  H    0.000161   0.000001   0.000006  -0.000149  -0.000000  -0.000000
    10  C    0.004596   0.000909  -0.000859  -0.000167   0.000132  -0.000010
    11  C    0.000244   0.000556  -0.000027  -0.000000  -0.000012  -0.000002
    12  C    0.000642  -0.000686   0.000211  -0.000005  -0.000206  -0.000058
    13  C    0.012620   0.000838  -0.008286   0.000223  -0.000931  -0.000005
    14  C    0.000838   0.050675  -0.002000  -0.000001  -0.005318   0.000043
[...]
              Bcc     0.0091     1.227     0.438     0.409  0.7652  0.6438  0.0000
 
              Baa    -0.0040    -2.157    -0.770    -0.720 -0.0233  0.3430  0.9390
    41 H(1)   Bbb    -0.0026    -1.372    -0.490    -0.458 -0.6633  0.6975 -0.2712
              Bcc     0.0066     3.529     1.259     1.177  0.7480  0.6292 -0.2113
 
              Baa    -0.0040    -2.157    -0.770    -0.719  0.0234 -0.3430  0.9390
    42 H(1)   Bbb    -0.0026    -1.372    -0.490    -0.458 -0.6633  0.6975  0.2713
              Bcc     0.0066     3.529     1.259     1.177  0.7480  0.6292  0.2112
 
              Baa    -0.0078    -4.145    -1.479    -1.383  0.0001 -0.0002  1.0000
    43 H(1)   Bbb    -0.0063    -3.363    -1.200    -1.122  0.7619 -0.6477 -0.0002
              Bcc     0.0141     7.509     2.679     2.505  0.6477  0.7619  0.0001
 
              Baa    -1.0997  -138.868   -49.552   -46.322  1.0000  0.0000  0.0000
    44 Co(59) Bbb     0.2216    27.980     9.984     9.333 -0.0000  1.0000 -0.0003
              Bcc     0.8781   110.888    39.568    36.988 -0.0000  0.0003  1.0000
 

 ---------------------------------------------------------------------------------

   1 Symmetry operations used in ECPInt.
 ECPInt:  NShTT=   11781 NPrTT=   71406 LenC2=    9530 LenP2D=   32074.
 LDataN:  DoStor=T MaxTD1= 7 Len=  274
 Calling FoFJK, ICntrl=      2127 FMM=F ISym2X=0 I1Cent= 0 IOpClX= 1 NMat=1 NMatS=1 NMatT=0.
 -------------------------------------------------------------------
 Center     Atomic                   Forces (Hartrees/Bohr)
 Number     Number              X              Y              Z
 -------------------------------------------------------------------
      1        6          -0.000003139   -0.059325844   -0.000007874
      2        6           0.093466563    0.046900169    0.000003241
      3        6           0.004575617    0.008100215    0.000001754
      4        6           0.000003074    0.010044589   -0.000002060
      5        6          -0.004580351    0.008099001    0.000000902
      6        6          -0.093465035    0.046902643    0.000002520
      7        1           0.001543569    0.004003072   -0.000000652
      8        1          -0.000000254   -0.000329975    0.000000073
      9        1          -0.001542184    0.004004138   -0.000000806
     10        6          -0.009558904   -0.010481990    0.000000411
     11        6           0.012116646    0.004887501   -0.000015787
     12        6           0.016129725    0.006630943   -0.000002873
     13        6           0.014249920    0.005110404   -0.000001238
     14        6           0.003675635    0.008091266   -0.000000919
     15        6          -0.014753743    0.009017492    0.000001661
     16        1           0.001108576   -0.000160357   -0.000000403
     17        6          -0.001275602   -0.015989899    0.000000453
     18        1           0.001026929    0.000459868    0.000000375
     19        1           0.001440487    0.000248781   -0.000000375
     20        1           0.001886124   -0.000299407   -0.000000056
     21        6           0.009541932   -0.010467228   -0.000000826
     22        6          -0.012118724    0.004884608   -0.000019567
     23        6          -0.016110874    0.006629122   -0.000001427
     24        6          -0.014234331    0.005096058   -0.000000661
     25        6          -0.003695159    0.008094195   -0.000000901
     26        6           0.014743522    0.009022853    0.000000567
     27        1          -0.001108583   -0.000157410   -0.000000180
     28        6           0.001285437   -0.015996682    0.000000068
     29        1          -0.001025404    0.000460951    0.000000049
     30        1          -0.001438042    0.000245906   -0.000000225
     31        1          -0.001889128   -0.000299600    0.000000142
     32        7          -0.038729093   -0.077394421    0.000007844
     33        7           0.030820255    0.025677557    0.000010705
     34        7           0.038736565   -0.077393945    0.000004145
     35        7          -0.030820478    0.025674198    0.000011091
     36        6           0.000763378   -0.015541961   -0.000002232
     37        1           0.000845382    0.001499948    0.001519243
     38        1           0.000843487    0.001503251   -0.001520491
     39        1           0.000923805    0.003605481    0.000001468
     40        6          -0.000763228   -0.015542560   -0.000002072
     41        1          -0.000843450    0.001502863   -0.001520389
     42        1          -0.000845540    0.001499828    0.001519257
     43        1          -0.000924065    0.003605649    0.000001846
     44       27          -0.000001315    0.037878729    0.000014197
 -------------------------------------------------------------------
 Cartesian Forces:  Max     0.093466563 RMS     0.019259815

 GradGradGradGradGradGradGradGradGradGradGradGradGradGradGradGradGradGrad
 Berny optimization.
 Search for a local minimum.
 Step number   1 out of a maximum of    2
 All quantities printed in internal units (Hartrees-Bohrs-Radians)
 Second derivative matrix not updated -- first step.
 ITU=  0
     Eigenvalues ---    0.00057   0.00058   0.00202   0.00249   0.00253
     Eigenvalues ---    0.00392   0.00455   0.00622   0.00675   0.00704
     Eigenvalues ---    0.00720   0.00833   0.00846   0.01329   0.01596
     Eigenvalues ---    0.01810   0.02038   0.02070   0.02546   0.02546
     Eigenvalues ---    0.03121   0.03170   0.04140   0.04243   0.04483
     Eigenvalues ---    0.04536   0.04718   0.05410   0.05571   0.06299
     Eigenvalues ---    0.06325   0.06876   0.06921   0.07020   0.07078
     Eigenvalues ---    0.07082   0.07195   0.07695   0.07749   0.09607
     Eigenvalues ---    0.10074   0.10291   0.10379   0.11632   0.11911
     Eigenvalues ---    0.11960   0.12354   0.12361   0.12865   0.13335
     Eigenvalues ---    0.13351   0.13418   0.13655   0.14829   0.15522
     Eigenvalues ---    0.15834   0.15897   0.19705   0.20269   0.20607
     Eigenvalues ---    0.21055   0.21905   0.24138   0.25213   0.28701
     Eigenvalues ---    0.29452   0.30206   0.30282   0.31099   0.31943
     Eigenvalues ---    0.32214   0.35025   0.36560   0.37104   0.38232
     Eigenvalues ---    0.38566   0.41433   0.41988   0.44861   0.48183
     Eigenvalues ---    0.48418   0.48925   0.49335   0.51259   0.53081
     Eigenvalues ---    0.53748   0.57211   0.58508   0.63815   0.69452
     Eigenvalues ---    0.71368   0.73170   0.73424   0.73802   0.87592
     Eigenvalues ---    0.89578   0.90829   0.91130   0.92614   0.94170
     Eigenvalues ---    0.95447   0.96936   0.99275   1.03488   1.11279
     Eigenvalues ---    1.15451   1.16306   1.18494   1.19815   1.23810
     Eigenvalues ---    1.29422   1.37198   1.37235   1.44179   1.47479
     Eigenvalues ---    1.50338   1.51461   1.51818   1.62501   1.65278
     Eigenvalues ---    1.66352   1.66862   1.79839   1.80706   1.99000
     Eigenvalues ---    2.00165
 Quadratic step=4.368D-01 exceeds max=3.000D-01 adjusted using Lamda=-3.055D-02.
 Angle between NR and scaled steps=  26.74 degrees.
 Angle between quadratic step and forces=  46.88 degrees.
 Linear search not attempted -- first point.
 B after Tr=    -0.000000   -0.002236   -0.000000
         Rot=    1.000000   -0.000000   -0.000000    0.000000 Ang=  -0.00 deg.
 Variable       Old X    -DE/DX   Delta X   Delta X   Delta X     New X
                                 (Linear)    (Quad)   (Total)
    X1        0.00001  -0.00000   0.00000  -0.00000  -0.00000   0.00000
    Y1        1.49832  -0.05933   0.00000  -0.12193  -0.12417   1.37415
    Z1        0.00020  -0.00001   0.00000  -0.00003  -0.00003   0.00017
    X2       -2.46910   0.09347   0.00000   0.11135   0.11135  -2.35776
    Y2        2.55326   0.04690   0.00000  -0.00806  -0.01030   2.54297
    Z2        0.00007   0.00000   0.00000   0.00001   0.00001   0.00008
    X3       -2.38946   0.00458   0.00000   0.05321   0.05321  -2.33626
    Y3        5.17902   0.00810   0.00000   0.02217   0.01993   5.19895
    Z3       -0.00002   0.00000   0.00000   0.00001   0.00002  -0.00000
    X4       -0.00000   0.00000   0.00000   0.00000   0.00000   0.00000
    Y4        6.35841   0.01004   0.00000   0.07516   0.07293   6.43133
    Z4        0.00002  -0.00000   0.00000  -0.00000  -0.00000   0.00002
    X5        2.38947  -0.00458   0.00000  -0.05321  -0.05321   2.33626
    Y5        5.17902   0.00810   0.00000   0.02217   0.01993   5.19895
    Z5        0.00008   0.00000   0.00000   0.00001   0.00001   0.00008
    X6        2.46911  -0.09347   0.00000  -0.11135  -0.11135   2.35776
    Y6        2.55326   0.04690   0.00000  -0.00806  -0.01030   2.54297
    Z6        0.00014   0.00000   0.00000   0.00000   0.00000   0.00014
    X7       -4.09983   0.00154   0.00000   0.04350   0.04350  -4.05634
    Y7        6.30688   0.00400   0.00000   0.01649   0.01425   6.32113
    Z7       -0.00009  -0.00000   0.00000   0.00001   0.00001  -0.00008
    X8        0.00000  -0.00000   0.00000   0.00000   0.00000   0.00000
    Y8        8.41506  -0.00033   0.00000   0.06836   0.06612   8.48118
    Z8       -0.00002   0.00000   0.00000  -0.00001  -0.00001  -0.00003
    X9        4.09983  -0.00154   0.00000  -0.04350  -0.04350   4.05634
    Y9        6.30688   0.00400   0.00000   0.01649   0.01425   6.32114
    Z9        0.00009  -0.00000   0.00000  -0.00000  -0.00000   0.00009
   X10        6.96425  -0.00956   0.00000  -0.02578  -0.02578   6.93847
   Y10        1.11541  -0.01048   0.00000  -0.02330  -0.02553   1.08988
   Z10       -0.00004   0.00000   0.00000   0.00000   0.00000  -0.00004
   X11        3.58943   0.01212   0.00000  -0.01839  -0.01839   3.57104
   Y11       -1.70409   0.00489   0.00000  -0.00676  -0.00899  -1.71308
   Z11        0.00023  -0.00002   0.00000  -0.00003  -0.00003   0.00019
   X12        7.87970   0.01613   0.00000   0.00307   0.00307   7.88277
   Y12       -1.40201   0.00663   0.00000   0.00476   0.00252  -1.39949
   Z12       -0.00016  -0.00000   0.00000  -0.00000  -0.00000  -0.00017
   X13        8.57905   0.01425   0.00000  -0.01274  -0.01274   8.56631
   Y13        3.15004   0.00511   0.00000  -0.00562  -0.00785   3.14218
   Z13       -0.00011  -0.00000   0.00000  -0.00000  -0.00000  -0.00011
   X14       10.45553   0.00368   0.00000   0.00317   0.00317  10.45871
   Y14       -1.89163   0.00809   0.00000   0.00595   0.00371  -1.88791
   Z14       -0.00036  -0.00000   0.00000  -0.00000  -0.00000  -0.00037
   X15       11.19999  -0.01475   0.00000  -0.02808  -0.02808  11.17191
   Y15        2.65160   0.00902   0.00000  -0.00002  -0.00226   2.64934
   Z15       -0.00032   0.00000   0.00000   0.00000   0.00000  -0.00032
   X16        7.87559   0.00111   0.00000  -0.00071  -0.00071   7.87488
   Y16        5.07306  -0.00016   0.00000  -0.00251  -0.00475   5.06831
   Z16        0.00002  -0.00000   0.00000  -0.00001  -0.00001   0.00001
   X17       12.10190  -0.00128   0.00000  -0.00647  -0.00647  12.09543
   Y17        0.20318  -0.01599   0.00000  -0.01184  -0.01408   0.18910
   Z17       -0.00046   0.00000   0.00000   0.00000   0.00000  -0.00045
   X18       11.16464   0.00103   0.00000   0.01126   0.01126  11.17590
   Y18       -3.81646   0.00046   0.00000   0.00885   0.00662  -3.80984
   Z18       -0.00046   0.00000   0.00000   0.00000   0.00000  -0.00046
   X19       12.49706   0.00144   0.00000  -0.01782  -0.01782  12.47924
   Y19        4.23713   0.00025   0.00000  -0.00280  -0.00504   4.23209
   Z19       -0.00037  -0.00000   0.00000  -0.00000  -0.00000  -0.00037
   X20       14.12160   0.00189   0.00000   0.00001   0.00001  14.12160
   Y20       -0.13353  -0.00030   0.00000  -0.00511  -0.00734  -0.14087
   Z20       -0.00062  -0.00000   0.00000   0.00001   0.00001  -0.00062
   X21       -6.96423   0.00954   0.00000   0.02577   0.02577  -6.93846
   Y21        1.11540  -0.01047   0.00000  -0.02329  -0.02552   1.08987
   Z21       -0.00007  -0.00000   0.00000   0.00001   0.00001  -0.00007
   X22       -3.58942  -0.01212   0.00000   0.01839   0.01839  -3.57103
   Y22       -1.70409   0.00488   0.00000  -0.00676  -0.00900  -1.71308
   Z22        0.00019  -0.00002   0.00000  -0.00004  -0.00004   0.00015
   X23       -7.87970  -0.01611   0.00000  -0.00306  -0.00306  -7.88276
   Y23       -1.40202   0.00663   0.00000   0.00476   0.00252  -1.39949
   Z23       -0.00013  -0.00000   0.00000   0.00001   0.00000  -0.00012
   X24       -8.57906  -0.01423   0.00000   0.01275   0.01275  -8.56631
   Y24        3.15004   0.00510   0.00000  -0.00563  -0.00786   3.14218
   Z24       -0.00010  -0.00000   0.00000   0.00000   0.00000  -0.00010
   X25      -10.45551  -0.00370   0.00000  -0.00319  -0.00319 -10.45869
   Y25       -1.89164   0.00809   0.00000   0.00595   0.00372  -1.88793
   Z25       -0.00019  -0.00000   0.00000  -0.00000  -0.00000  -0.00019
   X26      -11.19998   0.01474   0.00000   0.02807   0.02807 -11.17190
   Y26        2.65158   0.00902   0.00000  -0.00002  -0.00226   2.64932
   Z26       -0.00019   0.00000   0.00000  -0.00000  -0.00000  -0.00019
   X27       -7.87559  -0.00111   0.00000   0.00071   0.00071  -7.87487
   Y27        5.07305  -0.00016   0.00000  -0.00251  -0.00475   5.06830
   Z27       -0.00004  -0.00000   0.00000  -0.00000  -0.00000  -0.00005
   X28      -12.10189   0.00129   0.00000   0.00647   0.00647 -12.09543
   Y28        0.20316  -0.01600   0.00000  -0.01185  -0.01408   0.18908
   Z28       -0.00023   0.00000   0.00000  -0.00000  -0.00000  -0.00023
   X29      -11.16463  -0.00103   0.00000  -0.01127  -0.01127 -11.17589
   Y29       -3.81648   0.00046   0.00000   0.00886   0.00662  -3.80986
   Z29       -0.00020   0.00000   0.00000  -0.00000  -0.00000  -0.00020
   X30      -12.49706  -0.00144   0.00000   0.01782   0.01782 -12.47924
   Y30        4.23711   0.00025   0.00000  -0.00281  -0.00505   4.23206
   Z30       -0.00020  -0.00000   0.00000  -0.00000  -0.00000  -0.00020
   X31      -14.12158  -0.00189   0.00000  -0.00001  -0.00001 -14.12160
   Y31       -0.13355  -0.00030   0.00000  -0.00511  -0.00735  -0.14089
   Z31       -0.00029   0.00000   0.00000   0.00000   0.00000  -0.00029
   X32       -4.34936  -0.03873   0.00000   0.02832   0.02832  -4.32104
   Y32        0.92349  -0.07739   0.00000  -0.07026  -0.07250   0.85099
   Z32        0.00002   0.00001   0.00000   0.00002   0.00002   0.00004
   X33       -5.87458   0.03082   0.00000   0.04027   0.04027  -5.83431
   Y33       -3.03220   0.02568   0.00000   0.02792   0.02568  -3.00652
   Z33       -0.00009   0.00001   0.00000   0.00002   0.00002  -0.00008
   X34        4.34936   0.03874   0.00000  -0.02831  -0.02831   4.32105
   Y34        0.92349  -0.07739   0.00000  -0.07026  -0.07250   0.85099
   Z34        0.00014   0.00000   0.00000   0.00000   0.00000   0.00014
   X35        5.87459  -0.03082   0.00000  -0.04027  -0.04027   5.83432
   Y35       -3.03219   0.02567   0.00000   0.02791   0.02568  -3.00651
   Z35       -0.00010   0.00001   0.00000   0.00002   0.00002  -0.00008
   X36        6.03130   0.00076   0.00000  -0.01366  -0.01366   6.01765
   Y36       -5.70946  -0.01554   0.00000   0.00391   0.00167  -5.70778
   Z36        0.00002  -0.00000   0.00000  -0.00000  -0.00000   0.00001
   X37        7.00801   0.00085   0.00000   0.00179   0.00179   7.00979
   Y37       -6.41739   0.00150   0.00000   0.02012   0.01788  -6.39951
   Z37       -1.69083   0.00152   0.00000   0.00589   0.00588  -1.68495
   X38        7.00717   0.00084   0.00000   0.00177   0.00177   7.00895
   Y38       -6.41743   0.00150   0.00000   0.02014   0.01790  -6.39953
   Z38        1.69136  -0.00152   0.00000  -0.00588  -0.00588   1.68548
   X39        4.12564   0.00092   0.00000  -0.01213  -0.01213   4.11352
   Y39       -6.51859   0.00361   0.00000   0.01824   0.01601  -6.50258
   Z39       -0.00050   0.00000   0.00000   0.00001   0.00000  -0.00050
   X40       -6.03128  -0.00076   0.00000   0.01366   0.01366  -6.01763
   Y40       -5.70946  -0.01554   0.00000   0.00391   0.00167  -5.70779
   Z40        0.00009  -0.00000   0.00000  -0.00000  -0.00000   0.00009
   X41       -7.00704  -0.00084   0.00000  -0.00177  -0.00177  -7.00881
   Y41       -6.41740   0.00150   0.00000   0.02013   0.01790  -6.39950
   Z41        1.69151  -0.00152   0.00000  -0.00587  -0.00588   1.68563
   X42       -7.00810  -0.00085   0.00000  -0.00179  -0.00179  -7.00989
   Y42       -6.41743   0.00150   0.00000   0.02012   0.01788  -6.39955
   Z42       -1.69068   0.00152   0.00000   0.00589   0.00589  -1.68479
   X43       -4.12562  -0.00092   0.00000   0.01212   0.01212  -4.11350
   Y43       -6.51859   0.00361   0.00000   0.01824   0.01601  -6.50258
   Z43       -0.00055   0.00000   0.00000   0.00001   0.00001  -0.00055
   X44        0.00001  -0.00000   0.00000  -0.00000  -0.00000   0.00001
   Y44       -2.30000   0.03788   0.00000   0.05228   0.05005  -2.24995
   Z44        0.00013   0.00001   0.00000  -0.00001  -0.00001   0.00012
         Item               Value     Threshold  Converged?
 Maximum Force            0.093467     0.000450     NO 
 RMS     Force            0.019260     0.000300     NO 
 Maximum Displacement     0.124167     0.001800     NO 
 RMS     Displacement     0.026084     0.001200     NO 
 Predicted change in Energy=-2.406475D-02
 GradGradGradGradGradGradGradGradGradGradGradGradGradGradGradGradGradGrad

 Unable to Open any file for archive entry.
 1\1\GINC-X11P1N5\Force\UPBE1PBE\GenECP\C22H17Co1N4(3)\MAYUMIAO\17-Jul-
 2024\0\\# pbe1pbe em=gd3bj genecp g09default scf=(xqc,maxcycle=64) for
 ce guess=read nosymm\\Title Card\\0,3\C,0.00000319,0.79287757,0.000106
 42\C,-1.30659392,1.35112859,0.000037\C,-1.26444847,2.74061812,-0.00000
 924\C,-0.00000112,3.36472382,0.00001321\C,1.26445122,2.7406199,0.00003
 989\C,1.30659573,1.35112879,0.00007249\H,-2.16953903,3.33745729,-0.000
 04554\H,0.00000029,4.45305587,-0.0000105\H,2.16953913,3.33745809,0.000
 04648\C,3.68532176,0.59025153,-0.00002287\C,1.89944542,-0.90176375,0.0
 001193\C,4.16975799,-0.74191257,-0.00008673\C,4.5398383,1.66692795,-0.
 00005603\C,5.53283039,-1.00100609,-0.00019145\C,5.92677892,1.40316435,
 -0.00017143\H,4.1675809,2.68454583,0.00000943\C,6.40404738,0.10751606,
 -0.00024219\H,5.9080733,-2.01958403,-0.00024253\H,6.61315742,2.2421907
 1,-0.00019524\H,7.47282655,-0.07065988,-0.00032939\C,-3.68531206,0.590
 24235,-0.00003919\C,-1.89943906,-0.90176332,0.00010272\C,-4.16976028,-
 0.7419164,-0.00006752\C,-4.53984321,1.66692828,-0.0000551\C,-5.5328157
 7,-1.00101493,-0.00009931\C,-5.92677246,1.4031542,-0.00010008\H,-4.167
 58092,2.68454003,-0.0000238\C,-6.40404694,0.10750982,-0.000123\H,-5.90
 806571,-2.01959266,-0.00010406\H,-6.61315792,2.24218269,-0.0001069\H,-
 7.4728204,-0.07067078,-0.00015345\N,-2.30158209,0.48868819,0.00001128\
 N,-3.10869207,-1.60456937,-0.00005023\N,2.30158215,0.48868966,0.000073
 53\N,3.10869814,-1.60456508,-0.0000508\C,3.1916282,-3.02131383,0.00000
 996\H,3.70847803,-3.3959366,-0.89475097\H,3.70803693,-3.39595532,0.895
 02708\H,2.18319588,-3.44948725,-0.00026617\C,-3.191618,-3.02131692,0.0
 0004871\H,-3.70796521,-3.39594133,0.89510872\H,-3.70852797,-3.39595791
 ,-0.89466938\H,-2.18318475,-3.44948939,-0.00029349\Co,0.00000603,-1.21
 710496,0.00007042\\Version=ES64L-G16RevC.01\HF=-1212.103474\S2=2.25272
 7\S2-1=0.\S2A=2.006672\RMSD=2.574e-09\RMSF=1.926e-02\Dipole=-0.000001,
 -1.4372767,-0.0000717\Quadrupole=8.5465572,10.6143429,-19.1609001,0.00
 0007,-0.0003154,0.0002271\PG=C01 [X(C22H17Co1N4)]\\@
 The archive entry for this job was punched.


 Ideas are like rabbits. You get a couple and learn
 how to handle them, and pretty soon you have a dozen.
                                    -- John Steinbeck
 Job cpu time:       0 days  0 hours 44 minutes 15.8 seconds.
 Elapsed time:       0 days  0 hours  0 minutes 48.2 seconds.
 File lengths (MBytes):  RWF=    184 Int=      0 D2E=      0 Chk=     72 Scr=      1
 Normal termination of Gaussian 16 at Wed Jul 17 20:59:44 2024.
