 Entering Gaussian System, Link 0=g16
 Input=JOBS/18_A.gjf
 Output=JOBS/18_A.log
 Initial command:
 /data/app/gaussian/C01-avx2//g16/l1.exe "/tmp/Gau-2066034.inp" -scrdir="/tmp/"
 Entering Link 1 = /data/app/gaussian/C01-avx2//g16/l1.exe PID=   2066035.
  
 Copyright (c) 1988-2019, Gaussian, Inc.  All Rights Reserved.
  
 This is part of the Gaussian(R) 16 program.  It is based on
 the Gaussian(R) 09 system (copyright 2009, Gaussian, Inc.),
 the Gaussian(R) 03 system (copyright 2003, Gaussian, Inc.),
 the Gaussian(R) 98 system (copyright 1998, Gaussian, Inc.),
 the Gaussian(R) 94 system (copyright 1995, Gaussian, Inc.),
 the Gaussian 92(TM) system (copyright 1992, Gaussian, Inc.),
 the Gaussian 90(TM) system (copyright 1990, Gaussian, Inc.),
 the Gaussian 88(TM) system (copyright 1988, Gaussian, Inc.),
 the Gaussian 86(TM) system (copyright 1986, Carnegie Mellon
 University), and the Gaussian 82(TM) system (copyright 1983,
 Carnegie Mellon University). Gaussian is a federally registered
 trademark of Gaussian, Inc.
  
 This software contains proprietary and confidential information,
 including trade secrets, belonging to Gaussian, Inc.
  
 This software is provided under written license and may be
 used, copied, transmitted, or stored only in accord with that
 written license.
  
 The following legend is applicable only to US Government
 contracts under FAR:
  
                    RESTRICTED RIGHTS LEGEND
  
 Use, reproduction and disclosure by the US Government is
 subject to restrictions as set forth in subparagraphs (a)
 and (c) of the Commercial Computer Software - Restricted
 Rights clause in FAR 52.227-19.
  
 Gaussian, Inc.
 340 Quinnipiac St., Bldg. 40, Wallingford CT 06492
  
  
 ---------------------------------------------------------------
 Warning -- This program may not be used in any manner that
 competes with the business of Gaussian, Inc. or will provide
 assistance to any competitor of Gaussian, Inc.  The licensee
 of this program is prohibited from giving any competitor of
 Gaussian, Inc. access to this program.  By using this program,
 the user acknowledges that Gaussian, Inc. is engaged in the
 business of creating and licensing software in the field of
 computational chemistry and represents and warrants to the
 licensee that it is not a competitor of Gaussian, Inc. and that
 it will not use this program in any manner prohibited above.
 ---------------------------------------------------------------
  

 Cite this work as:
 Gaussian 16, Revision C.01,
 M. J. Frisch, G. W. Trucks, H. B. Schlegel, G. E. Scuseria, 
 M. A. Robb, J. R. Cheeseman, G. Scalmani, V. Barone, 
 G. A. Petersson, H. Nakatsuji, X. Li, M. Caricato, A. V. Marenich, 
 J. Bloino, B. G. Janesko, R. Gomperts, B. Mennucci, H. P. Hratchian, 
 J. V. Ortiz, A. F. Izmaylov, J. L. Sonnenberg, D. Williams-Young, 
 F. Ding, F. Lipparini, F. Egidi, J. Goings, B. Peng, A. Petrone, 
 T. Henderson, D. Ranasinghe, V. G. Zakrzewski, J. Gao, N. Rega, 
 G. Zheng, W. Liang, M. Hada, M. Ehara, K. Toyota, R. Fukuda, 
 J. Hasegawa, M. Ishida, T. Nakajima, Y. Honda, O. Kitao, H. Nakai, 
 T. Vreven, K. Throssell, J. A. Montgomery, Jr., J. E. Peralta, 
 F. Ogliaro, M. J. Bearpark, J. J. Heyd, E. N. Brothers, K. N. Kudin, 
 V. N. Staroverov, T. A. Keith, R. Kobayashi, J. Normand, 
 K. Raghavachari, A. P. Rendell, J. C. Burant, S. S. Iyengar, 
 J. Tomasi, M. Cossi, J. M. Millam, M. Klene, C. Adamo, R. Cammi, 
 J. W. Ochterski, R. L. Martin, K. Morokuma, O. Farkas, 
 J. B. Foresman, and D. J. Fox, Gaussian, Inc., Wallingford CT, 2019.
 
 ******************************************
 Gaussian 16:  ES64L-G16RevC.01  3-Jul-2019
                17-Jul-2024 
 ******************************************
 %chk=a.chk
 %nprocshared=56
 Will use up to   56 processors via shared memory.
 %mem=96gb
 ----------------------------------------------------------------------
 # pbe1pbe em=gd3bj genecp g09default scf=(xqc,maxcycle=64) force guess
 =read nosymm
 ----------------------------------------------------------------------
 1/10=7,30=1,38=1,158=3,167=1/1,3;
 2/12=2,15=1,17=6,18=5,40=1/2;
 3/5=7,11=2,16=1,17=8,25=1,27=10,30=1,71=1,74=-13,75=-4,116=-2,124=41,158=3/1,2,3;
 4/5=1,60=-1/1;
 5/5=2,7=64,8=3,13=1,38=6,87=10/2,8;
 6/7=2,8=2,9=2,10=2,28=1,87=10/1;
 7/29=1,30=1,87=10/1,2,3,16;
 1/10=7,30=1,158=3,167=1/3;
 99//99;
 Using 2006 physical constants.
 ----------
 Title Card
 ----------
 Symbolic Z-matrix:
 Charge =  0 Multiplicity = 1
 6                     0.        0.7859    0.00012 
 6                    -1.30656   1.3512    0.00004 
 6                    -1.26693   2.73814  -0.00001 
 6                    0.         3.3653    0.00001 
 6                     1.26693   2.73814   0.00004 
 6                     1.30656   1.3512    0.00007 
 1                    -2.17008   3.33843  -0.00005 
 1                     0.        4.45257  -0.00001 
 1                     2.17008   3.33843   0.00005 
 6                     3.68528   0.59108  -0.00002 
 6                     1.89698  -0.90253   0.00011 
 6                     4.16988  -0.73993  -0.00009 
 6                     4.53886   1.66569  -0.00006 
 6                     5.53062  -1.00174  -0.00019 
 6                     5.9257    1.40219  -0.00017 
 1                     4.1674    2.68519   0.00001 
 6                     6.40466   0.10864  -0.00024 
 1                     5.90801  -2.0195   -0.00024 
 1                     6.61303   2.24215  -0.0002 
 1                     7.47267  -0.07061  -0.00033 
 6                    -3.68527   0.59107  -0.00004 
 6                    -1.89698  -0.90252   0.0001 
 6                    -4.16989  -0.73994  -0.00007 
 6                    -4.53887   1.66569  -0.00006 
 6                    -5.5306   -1.00175  -0.0001 
 6                    -5.92568   1.40218  -0.0001 
 1                    -4.1674    2.68518  -0.00002 
 6                    -6.40466   0.10864  -0.00012 
 1                    -5.908    -2.01951  -0.0001 
 1                    -6.61304   2.24214  -0.00011 
 1                    -7.47266  -0.07062  -0.00015 
 7                    -2.29762   0.48997   0.00001 
 7                    -3.10497  -1.60459  -0.00005 
 7                     2.29762   0.48998   0.00008 
 7                     3.10498  -1.60459  -0.00005 
 6                     3.19138  -3.02068   0.00001 
 1                     3.70827  -3.3953   -0.8946 
 1                     3.70783  -3.39532   0.89488 
 1                     2.18283  -3.44963  -0.00027 
 6                    -3.19137  -3.02069   0.00005 
 1                    -3.70776  -3.39531   0.89496 
 1                    -3.70832  -3.39532  -0.89452 
 1                    -2.18282  -3.44963  -0.00029 
 27                    0.00001  -1.21529   0.00006 
 

 GradGradGradGradGradGradGradGradGradGradGradGradGradGradGradGradGradGrad
 Berny optimization.
 Initialization pass.
 Trust Radius=3.00D-01 FncErr=1.00D-07 GrdErr=1.00D-07 EigMax=2.50D+02 EigMin=1.00D-04
 Number of steps in this run=      2 maximum allowed number of steps=      2.
 GradGradGradGradGradGradGradGradGradGradGradGradGradGradGradGradGradGrad

                          Input orientation:                          
 ---------------------------------------------------------------------
 Center     Atomic      Atomic             Coordinates (Angstroms)
 Number     Number       Type             X           Y           Z
 ---------------------------------------------------------------------
      1          6           0        0.000005    0.785896    0.000118
      2          6           0       -1.306563    1.351198    0.000037
      3          6           0       -1.266930    2.738138   -0.000011
      4          6           0       -0.000002    3.365301    0.000013
      5          6           0        1.266934    2.738140    0.000039
      6          6           0        1.306564    1.351196    0.000073
      7          1           0       -2.170077    3.338432   -0.000046
      8          1           0        0.000000    4.452569   -0.000011
      9          1           0        2.170076    3.338432    0.000046
     10          6           0        3.685280    0.591081   -0.000024
     11          6           0        1.896980   -0.902526    0.000114
     12          6           0        4.169877   -0.739935   -0.000086
     13          6           0        4.538858    1.665686   -0.000056
     14          6           0        5.530618   -1.001739   -0.000191
     15          6           0        5.925695    1.402191   -0.000171
     16          1           0        4.167403    2.685188    0.000010
     17          6           0        6.404657    0.108641   -0.000242
     18          1           0        5.908010   -2.019503   -0.000242
     19          1           0        6.613035    2.242147   -0.000195
     20          1           0        7.472669   -0.070609   -0.000329
     21          6           0       -3.685266    0.591067   -0.000040
     22          6           0       -1.896979   -0.902524    0.000098
     23          6           0       -4.169887   -0.739939   -0.000068
     24          6           0       -4.538869    1.665692   -0.000055
     25          6           0       -5.530595   -1.001748   -0.000100
     26          6           0       -5.925683    1.402180   -0.000100
     27          1           0       -4.167404    2.685180   -0.000024
     28          6           0       -6.404662    0.108637   -0.000123
     29          1           0       -5.908003   -2.019512   -0.000104
     30          1           0       -6.613036    2.242140   -0.000107
     31          1           0       -7.472662   -0.070620   -0.000153
     32          7           0       -2.297622    0.489972    0.000014
     33          7           0       -3.104968   -1.604585   -0.000047
     34          7           0        2.297622    0.489976    0.000076
     35          7           0        3.104978   -1.604585   -0.000048
     36          6           0        3.191376   -3.020684    0.000010
     37          1           0        3.708273   -3.395301   -0.894600
     38          1           0        3.707832   -3.395320    0.894875
     39          1           0        2.182835   -3.449630   -0.000266
     40          6           0       -3.191367   -3.020689    0.000049
     41          1           0       -3.707760   -3.395306    0.894957
     42          1           0       -3.708322   -3.395323   -0.894518
     43          1           0       -2.182823   -3.449632   -0.000294
     44         27           0        0.000009   -1.215292    0.000063
 ---------------------------------------------------------------------
                    Distance matrix (angstroms):
                    1          2          3          4          5
     1  C    0.000000
     2  C    1.423617   0.000000
     3  C    2.327309   1.387506   0.000000
     4  C    2.579405   2.400774   1.413662   0.000000
     5  C    2.327309   2.923439   2.533863   1.413668   0.000000
     6  C    1.423609   2.613127   2.923436   2.400778   1.387511
     7  H    3.350327   2.166738   1.084448   2.170241   3.489039
     8  H    3.666673   3.365355   2.131757   1.087268   2.131757
     9  H    3.350321   4.004513   3.489035   2.170245   1.084443
    10  C    3.690421   5.049384   5.397614   4.612765   3.233923
    11  C    2.539544   3.916881   4.823355   4.670427   3.694782
    12  C    4.440270   5.862102   6.454135   5.851569   4.530352
    13  C    4.623334   5.853875   5.904009   4.846642   3.443203
    14  C    5.812342   7.230723   7.758436   7.046900   5.671481
    15  C    5.957653   7.232438   7.315641   6.242411   4.846526
    16  H    4.579795   5.634167   5.434591   4.222538   2.900953
    17  C    6.440361   7.810689   8.109717   7.185089   5.771523
    18  H    6.540244   7.963145   8.609001   7.993793   6.646409
    19  H    6.771472   7.969556   7.895559   6.707737   5.369060
    20  H    7.521590   8.893619   9.179850   8.224737   6.811771
    21  C    3.690417   2.497204   3.233924   4.612759   5.397611
    22  C    2.539549   2.329775   3.694778   4.670423   4.823358
    23  C    4.440290   3.545628   4.530362   5.851576   6.454151
    24  C    4.623355   3.247569   3.443214   4.846646   5.904023
    25  C    5.812332   4.835163   5.671472   7.046884   7.758426
    26  C    5.957649   4.619402   4.846521   6.242399   7.315636
    27  H    4.579801   3.156568   2.900958   4.222535   5.434596
    28  C    6.440376   5.247340   5.771531   7.185091   8.109727
    29  H    6.540250   5.703940   6.646412   7.993790   8.609005
    30  H    6.771481   5.380747   5.369066   6.707735   7.895565
    31  H    7.521593   6.327901   6.811771   8.224730   9.179851
    32  N    2.316605   1.312976   2.473171   3.680567   4.214299
    33  N    3.918578   3.459901   4.715679   5.860084   6.162207
    34  N    2.316596   3.705652   4.214293   3.680567   2.473169
    35  N    3.918579   5.310212   6.162209   5.860092   4.715684
    36  C    4.967384   6.272544   7.282892   7.139027   6.071864
    37  H    5.659875   6.962629   7.948082   7.762563   6.661803
    38  H    5.659606   6.962350   7.947854   7.762398   6.661686
    39  H    4.764917   5.934968   7.084444   7.155981   6.255188
    40  C    4.967388   4.760870   6.071865   7.139026   7.282896
    41  H    5.659568   5.394064   6.661663   7.762358   7.947806
    42  H    5.659916   5.394268   6.661822   7.762593   7.948130
    43  H    4.764917   4.880143   6.255186   7.155978   7.084444
    44  Co   2.001188   2.879930   4.151474   4.580593   4.151473
                    6          7          8          9         10
     6  C    0.000000
     7  H    4.004515   0.000000
     8  H    3.365356   2.439372   0.000000
     9  H    2.166740   4.340153   2.439371   0.000000
    10  C    2.497211   6.467854   5.337825   3.137480   0.000000
    11  C    2.329776   5.875940   5.681160   4.249742   2.329996
    12  C    3.545616   7.538441   6.659577   4.542277   1.416488
    13  C    3.247557   6.914324   5.326156   2.899863   1.372359
    14  C    4.835176   8.839557   7.767702   5.489109   2.437693
    15  C    4.619413   8.324095   6.664733   4.225364   2.382721
    16  H    3.156571   6.371058   4.526686   2.101438   2.148890
    17  C    5.247333   9.162839   7.738821   5.325714   2.761840
    18  H    5.703938   9.693448   8.763121   6.532963   3.428655
    19  H    5.380746   8.851265   6.972675   4.576212   3.361215
    20  H    6.327905  10.227615   8.734982   6.303892   3.844756
    21  C    5.049372   3.137485   5.337826   6.467847   7.370546
    22  C    3.916879   4.249740   5.681158   5.875938   5.778622
    23  C    5.862113   4.542285   6.659588   7.538452   7.967137
    24  C    5.853887   2.899867   5.326163   6.914333   8.294059
    25  C    7.230705   5.489102   7.767694   8.839542   9.352511
    26  C    7.232427   4.225358   6.664728   8.324085   9.645128
    27  H    5.634167   2.101440   4.526690   6.371059   8.127109
    28  C    7.810696   5.325719   7.738828   9.162845  10.101470
    29  H    7.963143   6.532966   8.763124   9.693448   9.942146
    30  H    7.969558   4.576215   6.972679   8.851267  10.429828
    31  H    8.893614   6.303890   8.734982  10.227611  11.177545
    32  N    3.705652   2.851313   4.580528   5.298495   5.983756
    33  N    5.310203   5.030650   6.806611   7.229074   7.136415
    34  N    1.312972   5.298494   4.580525   2.851311   1.391336
    35  N    3.459904   7.229082   6.806615   5.030652   2.271058
    36  C    4.760867   8.317664   8.126155   6.440606   3.645379
    37  H    5.394245   8.983228   8.725861   6.964884   4.085590
    38  H    5.394087   8.982990   8.725721   6.964828   4.085676
    39  H    4.880142   8.063847   8.198141   6.788074   4.310997
    40  C    6.272541   6.440610   8.126157   8.317662   7.767443
    41  H    6.962295   6.964821   8.725686   8.982932   8.446853
    42  H    6.962673   6.964892   8.725893   8.983277   8.447301
    43  H    5.934962   6.788076   8.198140   8.063842   7.124746
    44  Co   2.879921   5.044370   5.667861   5.044363   4.104170
                   11         12         13         14         15
    11  C    0.000000
    12  C    2.278706   0.000000
    13  C    3.684459   2.433754   0.000000
    14  C    3.634992   1.385697   2.845829   0.000000
    15  C    4.641365   2.769765   1.411647   2.436178   0.000000
    16  H    4.245765   3.425124   1.085064   3.930876   2.176619
    17  C    4.619699   2.390465   2.430144   1.413113   1.379376
    18  H    4.163652   2.158332   3.931309   1.085481   3.421740
    19  H    5.668346   3.855105   2.152793   3.419711   1.085340
    20  H    5.637411   3.369930   3.409101   2.153733   2.135947
    21  C    5.778606   7.967110   8.294035   9.352515   9.645128
    22  C    3.793959   6.069035   6.929336   7.428260   8.155118
    23  C    6.069045   8.339765   9.034892   9.704037  10.320345
    24  C    6.929350   9.034893   9.077726  10.416801  10.467881
    25  C    7.428238   9.704005  10.416770  11.061213  11.705790
    26  C    8.155104  10.320320  10.467858  11.705796  11.851378
    27  H    7.046161   9.013416   8.765749  10.375211  10.174316
    28  C    8.362997  10.608533  11.053734  11.986820  12.398024
    29  H    7.884504  10.158789  11.077797  11.483810  12.318460
    30  H    9.072447  11.187672  11.166783  12.569450  12.566833
    31  H    9.406500  11.661762  12.136365  13.036574  13.479063
    32  N    4.419698   6.583404   6.936840   7.969099   8.273759
    33  N    5.050977   7.326049   8.314009   8.656603   9.518066
    34  N    1.448991   2.240094   2.530896   3.560544   3.740996
    35  N    1.397193   1.371726   3.570810   2.499430   4.122760
    36  C    2.482349   2.481790   4.876246   3.090015   5.199839
    37  H    3.208617   2.839754   5.206119   3.138479   5.360308
    38  H    3.208396   2.839985   5.206274   3.138937   5.360610
    39  H    2.563094   3.360177   5.631812   4.147267   6.127738
    40  C    5.511614   7.706476   9.039828   8.952608  10.133247
    41  H    6.199016   8.361177   9.717067   9.585306  10.799106
    42  H    6.199501   8.361646   9.717502   9.585775  10.799550
    43  H    4.809630   6.906465   8.446744   8.092549   9.449247
    44  Co   1.922582   4.196876   5.375982   5.534731   6.478038
                   16         17         18         19         20
    16  H    0.000000
    17  C    3.412316   0.000000
    18  H    5.016356   2.185327   0.000000
    19  H    2.485437   2.143659   4.319574   0.000000
    20  H    4.303394   1.082949   2.499269   2.467349   0.000000
    21  C    8.127100  10.101450   9.942133  10.429816  11.177537
    22  C    7.046163   8.362992   7.884510   9.072447   9.406508
    23  C    9.013430  10.608539  10.158804  11.187683  11.661781
    24  C    8.765760  11.053740  11.077812  11.166792  12.136383
    25  C   10.375195  11.986794  11.483793  12.569432  13.036560
    26  C   10.174306  12.398006  12.318449  12.566821  13.479056
    27  H    8.334807  10.881500  11.119712  10.789538  11.961842
    28  C   10.881507  12.809320  12.495234  13.191373  13.878489
    29  H   11.119713  12.495224  11.816012  13.226418  13.521857
    30  H   10.789540  13.191367  13.226420  13.226071  14.274309
    31  H   11.961839  13.878477  13.521853  14.274303  14.945331
    32  N    6.827556   8.710630   8.580784   9.081295   9.786360
    33  N    8.443314   9.662718   9.022523  10.451648  10.688288
    34  N    2.883581   4.124701   4.396860   4.657563   5.205321
    35  N    4.419378   3.717933   2.833574   5.206132   4.629234
    36  C    5.788748   4.485293   2.895248   6.277352   5.199271
    37  H    6.163074   4.510873   2.744365   6.404563   5.101371
    38  H    6.163163   4.511302   2.744976   6.404873   5.101872
    39  H    6.447830   5.521330   3.990262   7.212698   6.276953
    40  C    9.311742  10.093384   9.154291  11.127612  11.064567
    41  H    9.989572  10.739647   9.754857  11.794108  11.698596
    42  H    9.989987  10.740104   9.755329  11.794545  11.699054
    43  H    8.829575   9.295490   8.216255  10.476807  10.229679
    44  Co   5.707970   6.540055   5.962485   7.462305   7.559825
                   21         22         23         24         25
    21  C    0.000000
    22  C    2.329975   0.000000
    23  C    1.416487   2.278716   0.000000
    24  C    1.372391   3.684469   2.433765   0.000000
    25  C    2.437683   3.634970   1.385666   2.845832   0.000000
    26  C    2.382724   4.641348   2.769746   1.411628   2.436178
    27  H    2.148900   4.245757   3.425121   1.085054   3.930869
    28  C    2.761857   4.619703   2.390460   2.430146   1.413134
    29  H    3.428656   4.163649   2.158321   3.931318   1.085486
    30  H    3.361232   5.668342   3.855097   2.152780   3.419721
    31  H    3.844762   5.637402   3.369912   3.409094   2.153746
    32  N    1.391322   1.448986   2.240103   2.530910   3.560526
    33  N    2.271042   1.397185   1.371738   3.570824   2.499416
    34  N    5.983742   4.419699   6.583416   6.936852   7.969079
    35  N    7.136407   5.050987   7.326069   8.314031   8.656589
    36  C    7.767428   5.511621   7.706491   9.039845   8.952591
    37  H    8.447235   6.199457   8.361611   9.717469   9.585714
    38  H    8.446896   6.199078   8.361246   9.717140   9.585338
    39  H    7.124734   4.809639   6.906483   8.446764   8.092535
    40  C    3.645369   2.482351   2.481798   4.876262   3.090002
    41  H    4.085669   3.208374   2.840001   5.206294   3.138945
    42  H    4.085575   3.208636   2.839744   5.206125   3.138449
    43  H    4.310984   2.563097   3.360188   5.631829   4.147254
    44  Co   4.104166   1.922599   4.196903   5.376009   5.534725
                   26         27         28         29         30
    26  C    0.000000
    27  H    2.176612   0.000000
    28  C    1.379374   3.412316   0.000000
    29  H    3.421737   5.016355   2.185335   0.000000
    30  H    1.085351   2.485438   2.143655   4.319578   0.000000
    31  H    2.135949   4.303390   1.082938   2.499268   2.467350
    32  N    3.740983   2.883578   4.124706   4.396858   4.657563
    33  N    4.122750   4.419373   3.717945   2.833578   5.206135
    34  N    8.273746   6.827553   8.710636   8.580781   9.081295
    35  N    9.518061   8.443319   9.662732   9.022527  10.451655
    36  C   10.133237   9.311742  10.093394   9.154291  11.127615
    37  H   10.799493   9.989935  10.740071   9.755289  11.794502
    38  H   10.799148   9.989628  10.739706   9.754902  11.794163
    39  H    9.449239   8.829577   9.295503   8.216257  10.476812
    40  C    5.199832   5.788748   4.485304   2.895249   6.277356
    41  H    5.360614   6.163163   4.511327   2.744997   6.404886
    42  H    5.360289   6.163067   4.510867   2.744344   6.404555
    43  H    6.127731   6.447828   5.521341   3.990264   7.212701
    44  Co   6.478038   5.707978   6.540076   5.962497   7.462318
                   31         32         33         34         35
    31  H    0.000000
    32  N    5.205315   0.000000
    33  N    4.629233   2.244767   0.000000
    34  N    9.786353   4.595244   5.794408   0.000000
    35  N   10.688289   5.794416   6.209946   2.244774   0.000000
    36  C   11.064564   6.515658   6.453626   3.622641   1.418732
    37  H   11.699010   7.208776   7.101207   4.229155   2.090658
    38  H   11.698639   7.208450   7.100835   4.229052   2.090706
    39  H   10.229678   5.966151   5.600451   3.941278   2.062654
    40  C    5.199268   3.622641   1.418737   6.515656   6.453628
    41  H    5.101887   4.229043   2.090711   7.208387   7.100783
    42  H    5.101352   4.229158   2.090659   7.208828   7.101259
    43  H    6.276951   3.941277   2.062656   5.966146   5.600450
    44  Co   7.559833   2.861298   3.129286   2.861287   3.129279
                   36         37         38         39         40
    36  C    0.000000
    37  H    1.099020   0.000000
    38  H    1.099029   1.789475   0.000000
    39  H    1.095970   1.769108   1.769137   0.000000
    40  C    6.382743   6.967479   6.967066   5.391293   0.000000
    41  H    6.967019   7.628896   7.415592   5.958480   1.099027
    42  H    6.967522   7.416595   7.628976   5.958889   1.099018
    43  H    5.391290   5.958837   5.958531   4.365658   1.095971
    44  Co   3.666643   4.393642   4.393310   3.123619   3.666653
                   41         42         43         44
    41  H    0.000000
    42  H    1.789474   0.000000
    43  H    1.769140   1.769105   0.000000
    44  Co   4.393273   4.393692   3.123625   0.000000
 Symmetry turned off by external request.
 Stoichiometry    C22H17CoN4
 Framework group  C1[X(C22H17CoN4)]
 Deg. of freedom   126
 Full point group                 C1      NOp   1
 Rotational constants (GHZ):           0.4678858           0.1008548           0.0830582
 General basis read from cards:  (5D, 7F)
 ======================================================================================================
                                       Pseudopotential Parameters
 ======================================================================================================
  Center     Atomic      Valence      Angular      Power
  Number     Number     Electrons     Momentum     of R      Exponent        Coefficient   SO-Coeffient
 ======================================================================================================
    1          6
                                   No pseudopotential on this center.
    2          6
                                   No pseudopotential on this center.
    3          6
                                   No pseudopotential on this center.
    4          6
                                   No pseudopotential on this center.
    5          6
                                   No pseudopotential on this center.
    6          6
                                   No pseudopotential on this center.
    7          1
                                   No pseudopotential on this center.
    8          1
                                   No pseudopotential on this center.
    9          1
                                   No pseudopotential on this center.
   10          6
                                   No pseudopotential on this center.
   11          6
                                   No pseudopotential on this center.
   12          6
                                   No pseudopotential on this center.
   13          6
                                   No pseudopotential on this center.
   14          6
                                   No pseudopotential on this center.
   15          6
                                   No pseudopotential on this center.
   16          1
                                   No pseudopotential on this center.
   17          6
                                   No pseudopotential on this center.
   18          1
                                   No pseudopotential on this center.
   19          1
                                   No pseudopotential on this center.
   20          1
                                   No pseudopotential on this center.
   21          6
                                   No pseudopotential on this center.
   22          6
                                   No pseudopotential on this center.
   23          6
                                   No pseudopotential on this center.
   24          6
                                   No pseudopotential on this center.
   25          6
                                   No pseudopotential on this center.
   26          6
                                   No pseudopotential on this center.
   27          1
                                   No pseudopotential on this center.
   28          6
                                   No pseudopotential on this center.
   29          1
                                   No pseudopotential on this center.
   30          1
                                   No pseudopotential on this center.
   31          1
                                   No pseudopotential on this center.
   32          7
                                   No pseudopotential on this center.
   33          7
                                   No pseudopotential on this center.
   34          7
                                   No pseudopotential on this center.
   35          7
                                   No pseudopotential on this center.
   36          6
                                   No pseudopotential on this center.
   37          1
                                   No pseudopotential on this center.
   38          1
                                   No pseudopotential on this center.
   39          1
                                   No pseudopotential on this center.
   40          6
                                   No pseudopotential on this center.
   41          1
                                   No pseudopotential on this center.
   42          1
                                   No pseudopotential on this center.
   43          1
                                   No pseudopotential on this center.
   44         27           17
                                      F and up 
                                                     2        1.0000000        0.00000000    0.00000000
                                      S - F
                                                     2       23.6600000      283.96056600    0.00000000
                                                     2       10.6100000       47.15684600    0.00000000
                                      P - F
                                                     2       25.0400000      182.21223600    0.00000000
                                                     2       10.4400000       35.23335200    0.00000000
                                      D - F
                                                     2       29.5400000      -26.47533300    0.00000000
                                                     2       10.1800000       -1.82578700    0.00000000
 ======================================================================================================
   441 basis functions,   871 primitive gaussians,   473 cartesian basis functions
    97 alpha electrons       97 beta electrons
       nuclear repulsion energy      2491.6338333425 Hartrees.
 NAtoms=   44 NActive=   44 NUniq=   44 SFac= 1.00D+00 NAtFMM=   60 NAOKFM=F Big=F
 Integral buffers will be    131072 words long.
 Raffenetti 2 integral format.
 Two-electron integral symmetry is turned off.
 Nuclear repulsion after empirical dispersion term =     2491.5745793030 Hartrees.
 One-electron integrals computed using PRISM.
   1 Symmetry operations used in ECPInt.
 ECPInt:  NShTT=   11781 NPrTT=   71406 LenC2=    9530 LenP2D=   32080.
 LDataN:  DoStor=T MaxTD1= 6 Len=  172
 NBasis=   441 RedAO= T EigKep=  3.29D-04  NBF=   441
 NBsUse=   441 1.00D-06 EigRej= -1.00D+00 NBFU=   441
 Initial guess from the checkpoint file:  "a.chk"
 B after Tr=     0.000001    0.000136   -0.000001
         Rot=    1.000000   -0.000000   -0.000000    0.000000 Ang=  -0.00 deg.
 Initial guess <Sx>= 0.0000 <Sy>= 0.0000 <Sz>= 0.0000 <S**2>= 0.0000 S= 0.0000
 Requested convergence on RMS density matrix=1.00D-08 within  64 cycles.
 Requested convergence on MAX density matrix=1.00D-06.
 Requested convergence on             energy=1.00D-06.
 No special actions if energy rises.
 SCF Done:  E(UPBE1PBE) =  -1212.10289800     A.U. after   18 cycles
            NFock= 18  Conv=0.54D-08     -V/T= 2.0552
 <Sx>= 0.0000 <Sy>= 0.0000 <Sz>= 0.0000 <S**2>= 0.0000 S= 0.0000
 <L.S>=  0.00000000000    
 Annihilation of the first spin contaminant:
 S**2 before annihilation     0.0000,   after    -0.0000
 QCSCF skips out because SCF is already converged.

 **********************************************************************

            Population analysis using the SCF Density.

 **********************************************************************

 Alpha  occ. eigenvalues --  -14.45892 -14.45892 -14.45098 -14.45098 -10.28550
 Alpha  occ. eigenvalues --  -10.28549 -10.27669 -10.27669 -10.27533 -10.27533
 Alpha  occ. eigenvalues --  -10.27390 -10.27390 -10.24958 -10.24958 -10.24203
 Alpha  occ. eigenvalues --  -10.24203 -10.23892 -10.23892 -10.23472 -10.23472
 Alpha  occ. eigenvalues --  -10.23410 -10.23410 -10.21196 -10.21192 -10.20951
 Alpha  occ. eigenvalues --  -10.19519  -3.83560  -2.35295  -2.35164  -2.31587
 Alpha  occ. eigenvalues --   -1.05985  -1.05908  -0.97807  -0.97510  -0.88292
 Alpha  occ. eigenvalues --   -0.88063  -0.84521  -0.80663  -0.78896  -0.77995
 Alpha  occ. eigenvalues --   -0.77875  -0.75619  -0.75115  -0.72918  -0.71280
 Alpha  occ. eigenvalues --   -0.66808  -0.65507  -0.64617  -0.64109  -0.62636
 Alpha  occ. eigenvalues --   -0.61582  -0.58784  -0.57218  -0.56763  -0.54205
 Alpha  occ. eigenvalues --   -0.53244  -0.51840  -0.49822  -0.49759  -0.49076
 Alpha  occ. eigenvalues --   -0.48708  -0.47963  -0.47459  -0.46628  -0.46272
 Alpha  occ. eigenvalues --   -0.45689  -0.45445  -0.44988  -0.44898  -0.44332
 Alpha  occ. eigenvalues --   -0.42293  -0.41815  -0.40644  -0.38615  -0.38413
 Alpha  occ. eigenvalues --   -0.38105  -0.37484  -0.37138  -0.36968  -0.36135
 Alpha  occ. eigenvalues --   -0.35719  -0.34406  -0.34340  -0.33975  -0.31330
 Alpha  occ. eigenvalues --   -0.29275  -0.26736  -0.25834  -0.24884  -0.24496
 Alpha  occ. eigenvalues --   -0.22533  -0.21080  -0.20558  -0.20196  -0.16257
 Alpha  occ. eigenvalues --   -0.15661  -0.15375
 Alpha virt. eigenvalues --   -0.05051  -0.02618  -0.00704  -0.00067   0.00666
 Alpha virt. eigenvalues --    0.01293   0.02027   0.03285   0.05331   0.05835
 Alpha virt. eigenvalues --    0.06304   0.07202   0.09344   0.09376   0.10095
 Alpha virt. eigenvalues --    0.10626   0.12676   0.13118   0.14023   0.14194
 Alpha virt. eigenvalues --    0.15253   0.15591   0.15837   0.16029   0.16498
 Alpha virt. eigenvalues --    0.16781   0.17078   0.17816   0.18027   0.18242
 Alpha virt. eigenvalues --    0.19269   0.19302   0.19698   0.20283   0.21826
 Alpha virt. eigenvalues --    0.22116   0.22275   0.22705   0.22778   0.23623
 Alpha virt. eigenvalues --    0.25875   0.26342   0.26944   0.27785   0.27839
 Alpha virt. eigenvalues --    0.28489   0.29326   0.29361   0.31363   0.31656
 Alpha virt. eigenvalues --    0.32326   0.33547   0.33772   0.34561   0.34906
 Alpha virt. eigenvalues --    0.36129   0.37603   0.37775   0.39487   0.39758
 Alpha virt. eigenvalues --    0.41196   0.42740   0.44271   0.45342   0.46345
 Alpha virt. eigenvalues --    0.47298   0.48501   0.49852   0.51834   0.51937
 Alpha virt. eigenvalues --    0.52319   0.53523   0.53752   0.56032   0.56069
 Alpha virt. eigenvalues --    0.56882   0.56982   0.57074   0.58037   0.58505
 Alpha virt. eigenvalues --    0.58864   0.59234   0.59267   0.60149   0.61410
 Alpha virt. eigenvalues --    0.61610   0.61963   0.63016   0.63064   0.63199
 Alpha virt. eigenvalues --    0.63261   0.63395   0.63701   0.64352   0.64400
 Alpha virt. eigenvalues --    0.65349   0.66009   0.66384   0.66990   0.67476
 Alpha virt. eigenvalues --    0.67803   0.68422   0.68601   0.69143   0.71011
 Alpha virt. eigenvalues --    0.72510   0.72814   0.73924   0.75560   0.76229
 Alpha virt. eigenvalues --    0.76520   0.77531   0.78427   0.79806   0.80093
 Alpha virt. eigenvalues --    0.81090   0.81729   0.82777   0.83524   0.83857
 Alpha virt. eigenvalues --    0.84087   0.84484   0.84975   0.86441   0.86637
 Alpha virt. eigenvalues --    0.87431   0.87512   0.88484   0.90217   0.90291
 Alpha virt. eigenvalues --    0.90549   0.91646   0.91780   0.92832   0.93172
 Alpha virt. eigenvalues --    0.93628   0.93827   0.95456   0.95925   0.95959
 Alpha virt. eigenvalues --    0.96005   0.97341   0.98000   0.98022   0.98317
 Alpha virt. eigenvalues --    0.98373   1.00174   1.00427   1.01933   1.01948
 Alpha virt. eigenvalues --    1.02414   1.03453   1.04368   1.06560   1.07257
 Alpha virt. eigenvalues --    1.09220   1.09906   1.10657   1.11202   1.14178
 Alpha virt. eigenvalues --    1.15159   1.15289   1.16378   1.16779   1.18453
 Alpha virt. eigenvalues --    1.18709   1.19330   1.19937   1.23900   1.24194
 Alpha virt. eigenvalues --    1.24534   1.26049   1.26946   1.27172   1.28402
 Alpha virt. eigenvalues --    1.29481   1.29645   1.30588   1.33079   1.33532
 Alpha virt. eigenvalues --    1.34078   1.36153   1.36355   1.36890   1.39112
 Alpha virt. eigenvalues --    1.40801   1.41656   1.42414   1.42698   1.43454
 Alpha virt. eigenvalues --    1.44861   1.44953   1.45309   1.46778   1.48020
 Alpha virt. eigenvalues --    1.48280   1.49215   1.49921   1.49940   1.50890
 Alpha virt. eigenvalues --    1.51490   1.52589   1.53555   1.55690   1.57851
 Alpha virt. eigenvalues --    1.57979   1.60316   1.61709   1.65704   1.66070
 Alpha virt. eigenvalues --    1.66179   1.69780   1.72385   1.72508   1.76352
 Alpha virt. eigenvalues --    1.77374   1.78196   1.80341   1.80749   1.81722
 Alpha virt. eigenvalues --    1.82507   1.86563   1.86986   1.88026   1.88142
 Alpha virt. eigenvalues --    1.88765   1.88920   1.91201   1.91327   1.91982
 Alpha virt. eigenvalues --    1.94037   1.95237   1.95727   1.96486   1.97218
 Alpha virt. eigenvalues --    1.98071   1.98421   1.98534   1.99413   1.99456
 Alpha virt. eigenvalues --    1.99780   2.00440   2.01761   2.03380   2.03978
 Alpha virt. eigenvalues --    2.05395   2.06068   2.07780   2.08641   2.08752
 Alpha virt. eigenvalues --    2.12095   2.12680   2.13814   2.14573   2.14809
 Alpha virt. eigenvalues --    2.16339   2.16381   2.16542   2.18956   2.19808
 Alpha virt. eigenvalues --    2.20054   2.20804   2.21341   2.21864   2.22718
 Alpha virt. eigenvalues --    2.23832   2.24890   2.25833   2.26837   2.27606
 Alpha virt. eigenvalues --    2.27910   2.28101   2.28602   2.28783   2.29591
 Alpha virt. eigenvalues --    2.32937   2.35130   2.38532   2.40119   2.40698
 Alpha virt. eigenvalues --    2.40946   2.43977   2.44302   2.47224   2.47788
 Alpha virt. eigenvalues --    2.51674   2.51763   2.53195   2.56885   2.58627
 Alpha virt. eigenvalues --    2.58721   2.59331   2.61149   2.61642   2.61786
 Alpha virt. eigenvalues --    2.64713   2.64735   2.66246   2.68881   2.69245
 Alpha virt. eigenvalues --    2.69302   2.69779   2.72711   2.74822   2.76149
 Alpha virt. eigenvalues --    2.76696   2.76980   2.77492   2.78880   2.80765
 Alpha virt. eigenvalues --    2.80914   2.83882   2.85902   2.88333   2.89088
 Alpha virt. eigenvalues --    2.93476   2.95024   2.98114   2.98574   3.00380
 Alpha virt. eigenvalues --    3.01614   3.06447   3.06866   3.17165   3.20423
 Alpha virt. eigenvalues --    3.20427   3.30622   3.39972   3.47903   3.48757
 Alpha virt. eigenvalues --    3.52268   3.55019   3.61253   5.66371   5.66811
 Alpha virt. eigenvalues --    5.67390   5.68309   5.68391   5.69520   5.71767
 Alpha virt. eigenvalues --   45.81612  45.97070  46.03166  63.11238
  Beta  occ. eigenvalues --  -14.45892 -14.45892 -14.45098 -14.45098 -10.28550
  Beta  occ. eigenvalues --  -10.28549 -10.27669 -10.27669 -10.27533 -10.27533
  Beta  occ. eigenvalues --  -10.27390 -10.27390 -10.24958 -10.24958 -10.24203
  Beta  occ. eigenvalues --  -10.24203 -10.23892 -10.23892 -10.23472 -10.23472
  Beta  occ. eigenvalues --  -10.23410 -10.23410 -10.21196 -10.21192 -10.20951
  Beta  occ. eigenvalues --  -10.19519  -3.83560  -2.35295  -2.35164  -2.31587
  Beta  occ. eigenvalues --   -1.05985  -1.05908  -0.97807  -0.97510  -0.88292
  Beta  occ. eigenvalues --   -0.88063  -0.84521  -0.80663  -0.78896  -0.77995
  Beta  occ. eigenvalues --   -0.77875  -0.75619  -0.75115  -0.72918  -0.71280
  Beta  occ. eigenvalues --   -0.66808  -0.65507  -0.64617  -0.64109  -0.62636
  Beta  occ. eigenvalues --   -0.61582  -0.58784  -0.57218  -0.56763  -0.54205
  Beta  occ. eigenvalues --   -0.53244  -0.51840  -0.49822  -0.49759  -0.49076
  Beta  occ. eigenvalues --   -0.48708  -0.47963  -0.47459  -0.46628  -0.46272
  Beta  occ. eigenvalues --   -0.45689  -0.45445  -0.44988  -0.44898  -0.44332
  Beta  occ. eigenvalues --   -0.42293  -0.41815  -0.40644  -0.38615  -0.38413
  Beta  occ. eigenvalues --   -0.38105  -0.37484  -0.37138  -0.36968  -0.36135
  Beta  occ. eigenvalues --   -0.35719  -0.34406  -0.34340  -0.33975  -0.31330
  Beta  occ. eigenvalues --   -0.29275  -0.26736  -0.25834  -0.24884  -0.24496
  Beta  occ. eigenvalues --   -0.22533  -0.21080  -0.20558  -0.20196  -0.16257
  Beta  occ. eigenvalues --   -0.15661  -0.15375
  Beta virt. eigenvalues --   -0.05051  -0.02618  -0.00704  -0.00067   0.00666
  Beta virt. eigenvalues --    0.01293   0.02027   0.03285   0.05331   0.05835
  Beta virt. eigenvalues --    0.06304   0.07202   0.09344   0.09376   0.10095
  Beta virt. eigenvalues --    0.10626   0.12676   0.13118   0.14023   0.14194
  Beta virt. eigenvalues --    0.15253   0.15591   0.15837   0.16029   0.16498
  Beta virt. eigenvalues --    0.16781   0.17078   0.17816   0.18027   0.18242
  Beta virt. eigenvalues --    0.19269   0.19302   0.19698   0.20283   0.21826
  Beta virt. eigenvalues --    0.22116   0.22275   0.22705   0.22778   0.23623
  Beta virt. eigenvalues --    0.25875   0.26342   0.26944   0.27785   0.27839
  Beta virt. eigenvalues --    0.28489   0.29326   0.29361   0.31363   0.31656
  Beta virt. eigenvalues --    0.32326   0.33547   0.33772   0.34561   0.34906
  Beta virt. eigenvalues --    0.36129   0.37603   0.37775   0.39487   0.39758
  Beta virt. eigenvalues --    0.41196   0.42740   0.44271   0.45342   0.46345
  Beta virt. eigenvalues --    0.47298   0.48501   0.49852   0.51834   0.51937
  Beta virt. eigenvalues --    0.52319   0.53523   0.53752   0.56032   0.56069
  Beta virt. eigenvalues --    0.56882   0.56982   0.57074   0.58037   0.58505
  Beta virt. eigenvalues --    0.58864   0.59234   0.59267   0.60149   0.61410
  Beta virt. eigenvalues --    0.61610   0.61963   0.63016   0.63064   0.63199
  Beta virt. eigenvalues --    0.63261   0.63395   0.63701   0.64352   0.64400
  Beta virt. eigenvalues --    0.65349   0.66009   0.66384   0.66990   0.67476
  Beta virt. eigenvalues --    0.67803   0.68422   0.68601   0.69143   0.71011
  Beta virt. eigenvalues --    0.72510   0.72814   0.73924   0.75560   0.76229
  Beta virt. eigenvalues --    0.76520   0.77531   0.78427   0.79806   0.80093
  Beta virt. eigenvalues --    0.81090   0.81729   0.82777   0.83524   0.83857
  Beta virt. eigenvalues --    0.84087   0.84484   0.84975   0.86441   0.86637
  Beta virt. eigenvalues --    0.87431   0.87512   0.88484   0.90217   0.90291
  Beta virt. eigenvalues --    0.90549   0.91646   0.91780   0.92832   0.93172
  Beta virt. eigenvalues --    0.93628   0.93827   0.95456   0.95925   0.95959
  Beta virt. eigenvalues --    0.96005   0.97341   0.98000   0.98022   0.98317
  Beta virt. eigenvalues --    0.98373   1.00174   1.00427   1.01933   1.01948
  Beta virt. eigenvalues --    1.02414   1.03453   1.04368   1.06560   1.07257
  Beta virt. eigenvalues --    1.09220   1.09906   1.10657   1.11202   1.14178
  Beta virt. eigenvalues --    1.15159   1.15289   1.16378   1.16779   1.18453
  Beta virt. eigenvalues --    1.18709   1.19330   1.19937   1.23900   1.24194
  Beta virt. eigenvalues --    1.24534   1.26049   1.26946   1.27172   1.28402
  Beta virt. eigenvalues --    1.29481   1.29645   1.30588   1.33079   1.33532
  Beta virt. eigenvalues --    1.34078   1.36153   1.36355   1.36890   1.39112
  Beta virt. eigenvalues --    1.40801   1.41656   1.42414   1.42698   1.43454
  Beta virt. eigenvalues --    1.44861   1.44953   1.45309   1.46778   1.48020
  Beta virt. eigenvalues --    1.48280   1.49215   1.49921   1.49940   1.50890
  Beta virt. eigenvalues --    1.51490   1.52589   1.53555   1.55690   1.57851
  Beta virt. eigenvalues --    1.57979   1.60316   1.61709   1.65704   1.66070
  Beta virt. eigenvalues --    1.66179   1.69780   1.72385   1.72508   1.76352
  Beta virt. eigenvalues --    1.77374   1.78196   1.80341   1.80749   1.81722
  Beta virt. eigenvalues --    1.82507   1.86563   1.86986   1.88026   1.88142
  Beta virt. eigenvalues --    1.88765   1.88920   1.91201   1.91327   1.91982
  Beta virt. eigenvalues --    1.94037   1.95237   1.95727   1.96486   1.97218
  Beta virt. eigenvalues --    1.98071   1.98421   1.98534   1.99413   1.99456
  Beta virt. eigenvalues --    1.99780   2.00440   2.01761   2.03380   2.03978
  Beta virt. eigenvalues --    2.05395   2.06068   2.07780   2.08641   2.08752
  Beta virt. eigenvalues --    2.12095   2.12680   2.13814   2.14573   2.14809
  Beta virt. eigenvalues --    2.16339   2.16381   2.16542   2.18956   2.19808
  Beta virt. eigenvalues --    2.20054   2.20804   2.21341   2.21864   2.22718
  Beta virt. eigenvalues --    2.23832   2.24890   2.25833   2.26837   2.27606
  Beta virt. eigenvalues --    2.27910   2.28101   2.28602   2.28783   2.29591
  Beta virt. eigenvalues --    2.32937   2.35130   2.38532   2.40119   2.40698
  Beta virt. eigenvalues --    2.40946   2.43977   2.44302   2.47224   2.47788
  Beta virt. eigenvalues --    2.51674   2.51763   2.53195   2.56885   2.58627
  Beta virt. eigenvalues --    2.58721   2.59331   2.61149   2.61642   2.61786
  Beta virt. eigenvalues --    2.64713   2.64735   2.66246   2.68881   2.69245
  Beta virt. eigenvalues --    2.69302   2.69779   2.72711   2.74822   2.76149
  Beta virt. eigenvalues --    2.76696   2.76980   2.77492   2.78880   2.80765
  Beta virt. eigenvalues --    2.80914   2.83882   2.85902   2.88333   2.89088
  Beta virt. eigenvalues --    2.93476   2.95024   2.98114   2.98574   3.00380
  Beta virt. eigenvalues --    3.01614   3.06447   3.06866   3.17165   3.20423
  Beta virt. eigenvalues --    3.20427   3.30622   3.39972   3.47903   3.48757
  Beta virt. eigenvalues --    3.52268   3.55019   3.61253   5.66371   5.66811
  Beta virt. eigenvalues --    5.67390   5.68309   5.68391   5.69520   5.71767
  Beta virt. eigenvalues --   45.81612  45.97070  46.03165  63.11238
          Condensed to atoms (all electrons):
               1          2          3          4          5          6
     1  C    5.142045   0.511986  -0.066230  -0.057397  -0.066229   0.511988
     2  C    0.511986   4.634005   0.522400  -0.017646  -0.036990  -0.016683
     3  C   -0.066230   0.522400   5.049020   0.534791  -0.031825  -0.036991
     4  C   -0.057397  -0.017646   0.534791   4.913834   0.534790  -0.017646
     5  C   -0.066229  -0.036990  -0.031825   0.534790   5.049023   0.522399
     6  C    0.511988  -0.016683  -0.036991  -0.017646   0.522399   4.633997
     7  H    0.005923  -0.040976   0.341770  -0.038262   0.003648   0.000750
     8  H    0.001752   0.002891  -0.037001   0.362672  -0.037002   0.002891
     9  H    0.005923   0.000750   0.003648  -0.038262   0.341771  -0.040975
    10  C    0.006441  -0.000038   0.000002   0.000155  -0.005851  -0.052486
    11  C    0.007267   0.002307  -0.000035   0.000041   0.003160  -0.069854
    12  C   -0.000708   0.000002  -0.000000   0.000001   0.000124   0.008143
    13  C    0.000156  -0.000000  -0.000001   0.000047   0.002622  -0.004059
    14  C    0.000002  -0.000000   0.000000  -0.000000   0.000003  -0.000021
    15  C    0.000002  -0.000000   0.000000  -0.000001   0.000084   0.000074
    16  H   -0.000029   0.000000   0.000001   0.000099   0.000403   0.000771
    17  C    0.000000   0.000000   0.000000   0.000000  -0.000001  -0.000004
    18  H   -0.000000   0.000000   0.000000   0.000000  -0.000000   0.000003
    19  H   -0.000000   0.000000  -0.000000   0.000000   0.000002  -0.000003
    20  H    0.000000  -0.000000   0.000000  -0.000000  -0.000000  -0.000000
    21  C    0.006441  -0.052487  -0.005851   0.000155   0.000002  -0.000038
    22  C    0.007265  -0.069853   0.003160   0.000041  -0.000035   0.002307
    23  C   -0.000708   0.008143   0.000124   0.000001  -0.000000   0.000002
    24  C    0.000156  -0.004059   0.002622   0.000047  -0.000001  -0.000000
    25  C    0.000002  -0.000021   0.000003  -0.000000   0.000000  -0.000000
    26  C    0.000002   0.000074   0.000084  -0.000001   0.000000  -0.000000
    27  H   -0.000029   0.000771   0.000403   0.000099   0.000001   0.000000
    28  C    0.000000  -0.000004  -0.000001   0.000000   0.000000   0.000000
    29  H   -0.000000   0.000003  -0.000000   0.000000   0.000000   0.000000
    30  H   -0.000000  -0.000003   0.000002   0.000000  -0.000000   0.000000
    31  H    0.000000  -0.000000  -0.000000  -0.000000   0.000000  -0.000000
    32  N   -0.037794   0.262260  -0.075771   0.004916   0.000134   0.005460
    33  N    0.001915   0.006185  -0.000172   0.000002   0.000000  -0.000036
    34  N   -0.037795   0.005460   0.000134   0.004916  -0.075770   0.262262
    35  N    0.001915  -0.000036   0.000000   0.000002  -0.000172   0.006185
    36  C   -0.000013   0.000000   0.000000  -0.000000   0.000002  -0.000052
    37  H   -0.000001  -0.000000   0.000000   0.000000  -0.000000   0.000004
    38  H   -0.000001  -0.000000   0.000000   0.000000  -0.000000   0.000004
    39  H   -0.000014   0.000001   0.000000  -0.000000   0.000000  -0.000007
    40  C   -0.000013  -0.000052   0.000002  -0.000000   0.000000   0.000000
    41  H   -0.000001   0.000004  -0.000000   0.000000   0.000000  -0.000000
    42  H   -0.000001   0.000004  -0.000000   0.000000   0.000000  -0.000000
    43  H   -0.000014  -0.000007   0.000000  -0.000000   0.000000   0.000001
    44  Co   0.255633  -0.064142   0.006530   0.002039   0.006530  -0.064142
               7          8          9         10         11         12
     1  C    0.005923   0.001752   0.005923   0.006441   0.007267  -0.000708
     2  C   -0.040976   0.002891   0.000750  -0.000038   0.002307   0.000002
     3  C    0.341770  -0.037001   0.003648   0.000002  -0.000035  -0.000000
     4  C   -0.038262   0.362672  -0.038262   0.000155   0.000041   0.000001
     5  C    0.003648  -0.037002   0.341771  -0.005851   0.003160   0.000124
     6  C    0.000750   0.002891  -0.040975  -0.052486  -0.069854   0.008143
     7  H    0.571757  -0.004063  -0.000080  -0.000000  -0.000001   0.000000
     8  H   -0.004063   0.562051  -0.004063  -0.000003   0.000001  -0.000000
     9  H   -0.000080  -0.004063   0.571756   0.000427  -0.000204  -0.000045
    10  C   -0.000000  -0.000003   0.000427   4.642569  -0.064083   0.508346
    11  C   -0.000001   0.000001  -0.000204  -0.064083   4.819431  -0.054946
    12  C    0.000000  -0.000000  -0.000045   0.508346  -0.054946   4.662094
    13  C   -0.000000   0.000003  -0.000505   0.543306   0.004397  -0.057970
    14  C   -0.000000   0.000000   0.000000  -0.048737   0.004962   0.536103
    15  C   -0.000000   0.000000   0.000139  -0.005758  -0.000049  -0.037673
    16  H    0.000000  -0.000011   0.006461  -0.032880  -0.000149   0.003746
    17  C    0.000000  -0.000000   0.000001  -0.039093  -0.000061  -0.009489
    18  H    0.000000  -0.000000  -0.000000   0.003891  -0.000204  -0.037414
    19  H    0.000000   0.000000  -0.000009   0.001896   0.000003   0.000932
    20  H   -0.000000  -0.000000   0.000000   0.000901   0.000002   0.002324
    21  C    0.000427  -0.000003  -0.000000  -0.000000  -0.000008   0.000000
    22  C   -0.000204   0.000001  -0.000001  -0.000008  -0.015065  -0.000002
    23  C   -0.000045  -0.000000   0.000000   0.000000  -0.000002  -0.000000
    24  C   -0.000505   0.000003  -0.000000   0.000000   0.000000  -0.000000
    25  C    0.000000   0.000000  -0.000000  -0.000000   0.000000   0.000000
    26  C    0.000139   0.000000  -0.000000  -0.000000  -0.000000   0.000000
    27  H    0.006461  -0.000011   0.000000   0.000000   0.000000  -0.000000
    28  C    0.000001  -0.000000   0.000000   0.000000  -0.000000  -0.000000
    29  H   -0.000000  -0.000000   0.000000   0.000000   0.000000  -0.000000
    30  H   -0.000009   0.000000   0.000000   0.000000   0.000000  -0.000000
    31  H    0.000000  -0.000000  -0.000000   0.000000   0.000000   0.000000
    32  N   -0.003480  -0.000118   0.000008   0.000000   0.000309   0.000000
    33  N    0.000000  -0.000000  -0.000000  -0.000000   0.000035   0.000000
    34  N    0.000008  -0.000118  -0.003480   0.256386   0.348457  -0.038611
    35  N   -0.000000  -0.000000   0.000000  -0.045531   0.301283   0.263031
    36  C   -0.000000   0.000000  -0.000000   0.005560  -0.043327  -0.048942
    37  H    0.000000  -0.000000   0.000000  -0.000138   0.000538  -0.001201
    38  H    0.000000  -0.000000   0.000000  -0.000138   0.000532  -0.001197
    39  H    0.000000   0.000000   0.000000   0.000017   0.000491   0.002615
    40  C   -0.000000   0.000000  -0.000000   0.000000   0.000015   0.000000
    41  H    0.000000  -0.000000   0.000000  -0.000000  -0.000000  -0.000000
    42  H    0.000000  -0.000000   0.000000  -0.000000  -0.000000  -0.000000
    43  H    0.000000   0.000000   0.000000  -0.000000  -0.000003  -0.000000
    44  Co  -0.000467   0.000119  -0.000467   0.007106   0.361257   0.005249
              13         14         15         16         17         18
     1  C    0.000156   0.000002   0.000002  -0.000029   0.000000  -0.000000
     2  C   -0.000000  -0.000000  -0.000000   0.000000   0.000000   0.000000
     3  C   -0.000001   0.000000   0.000000   0.000001   0.000000   0.000000
     4  C    0.000047  -0.000000  -0.000001   0.000099   0.000000   0.000000
     5  C    0.002622   0.000003   0.000084   0.000403  -0.000001  -0.000000
     6  C   -0.004059  -0.000021   0.000074   0.000771  -0.000004   0.000003
     7  H   -0.000000  -0.000000  -0.000000   0.000000   0.000000   0.000000
     8  H    0.000003   0.000000   0.000000  -0.000011  -0.000000  -0.000000
     9  H   -0.000505   0.000000   0.000139   0.006461   0.000001  -0.000000
    10  C    0.543306  -0.048737  -0.005758  -0.032880  -0.039093   0.003891
    11  C    0.004397   0.004962  -0.000049  -0.000149  -0.000061  -0.000204
    12  C   -0.057970   0.536103  -0.037673   0.003746  -0.009489  -0.037414
    13  C    5.028683  -0.045333   0.506134   0.354829  -0.036645   0.000290
    14  C   -0.045333   5.037387  -0.036459   0.000438   0.512675   0.362287
    15  C    0.506134  -0.036459   4.894568  -0.034982   0.559928   0.003761
    16  H    0.354829   0.000438  -0.034982   0.508794   0.003621   0.000013
    17  C   -0.036645   0.512675   0.559928   0.003621   4.888559  -0.034767
    18  H    0.000290   0.362287   0.003761   0.000013  -0.034767   0.531509
    19  H   -0.035400   0.003904   0.368944  -0.003845  -0.036001  -0.000142
    20  H    0.004058  -0.036832  -0.036587  -0.000146   0.368848  -0.004042
    21  C    0.000000  -0.000000  -0.000000   0.000000   0.000000   0.000000
    22  C    0.000000   0.000000  -0.000000   0.000000  -0.000000   0.000000
    23  C   -0.000000   0.000000   0.000000  -0.000000  -0.000000  -0.000000
    24  C    0.000000  -0.000000   0.000000   0.000000   0.000000   0.000000
    25  C   -0.000000  -0.000000   0.000000  -0.000000  -0.000000   0.000000
    26  C    0.000000   0.000000  -0.000000  -0.000000  -0.000000   0.000000
    27  H    0.000000  -0.000000  -0.000000   0.000000   0.000000  -0.000000
    28  C    0.000000  -0.000000  -0.000000   0.000000   0.000000   0.000000
    29  H    0.000000   0.000000   0.000000  -0.000000   0.000000  -0.000000
    30  H   -0.000000  -0.000000   0.000000  -0.000000   0.000000   0.000000
    31  H   -0.000000   0.000000   0.000000  -0.000000   0.000000   0.000000
    32  N   -0.000000   0.000000   0.000000   0.000000   0.000000  -0.000000
    33  N    0.000000  -0.000000  -0.000000   0.000000   0.000000  -0.000000
    34  N   -0.079228   0.009432   0.005153  -0.005244  -0.000187  -0.000094
    35  N    0.009634  -0.083489  -0.000194  -0.000095   0.005319  -0.007385
    36  C   -0.000115  -0.002850   0.000009   0.000003  -0.000115   0.004360
    37  H   -0.000010   0.002661  -0.000001  -0.000000  -0.000005   0.000536
    38  H   -0.000010   0.002658  -0.000001  -0.000000  -0.000005   0.000534
    39  H    0.000005   0.000013  -0.000000  -0.000000   0.000001  -0.000034
    40  C    0.000000   0.000000  -0.000000   0.000000   0.000000  -0.000000
    41  H   -0.000000  -0.000000   0.000000   0.000000   0.000000  -0.000000
    42  H   -0.000000  -0.000000   0.000000   0.000000   0.000000  -0.000000
    43  H    0.000000   0.000000  -0.000000   0.000000  -0.000000   0.000000
    44  Co  -0.001244  -0.001407   0.000165   0.000041   0.000145   0.000020
              19         20         21         22         23         24
     1  C   -0.000000   0.000000   0.006441   0.007265  -0.000708   0.000156
     2  C    0.000000  -0.000000  -0.052487  -0.069853   0.008143  -0.004059
     3  C   -0.000000   0.000000  -0.005851   0.003160   0.000124   0.002622
     4  C    0.000000  -0.000000   0.000155   0.000041   0.000001   0.000047
     5  C    0.000002  -0.000000   0.000002  -0.000035  -0.000000  -0.000001
     6  C   -0.000003  -0.000000  -0.000038   0.002307   0.000002  -0.000000
     7  H    0.000000  -0.000000   0.000427  -0.000204  -0.000045  -0.000505
     8  H    0.000000  -0.000000  -0.000003   0.000001  -0.000000   0.000003
     9  H   -0.000009   0.000000  -0.000000  -0.000001   0.000000  -0.000000
    10  C    0.001896   0.000901  -0.000000  -0.000008   0.000000   0.000000
    11  C    0.000003   0.000002  -0.000008  -0.015065  -0.000002   0.000000
    12  C    0.000932   0.002324   0.000000  -0.000002  -0.000000  -0.000000
    13  C   -0.035400   0.004058   0.000000   0.000000  -0.000000   0.000000
    14  C    0.003904  -0.036832  -0.000000   0.000000   0.000000  -0.000000
    15  C    0.368944  -0.036587  -0.000000  -0.000000   0.000000   0.000000
    16  H   -0.003845  -0.000146   0.000000   0.000000  -0.000000   0.000000
    17  C   -0.036001   0.368848   0.000000  -0.000000  -0.000000   0.000000
    18  H   -0.000142  -0.004042   0.000000   0.000000  -0.000000   0.000000
    19  H    0.530085  -0.004656   0.000000   0.000000  -0.000000  -0.000000
    20  H   -0.004656   0.535116   0.000000   0.000000   0.000000  -0.000000
    21  C    0.000000   0.000000   4.642606  -0.064087   0.508346   0.543299
    22  C    0.000000   0.000000  -0.064087   4.819426  -0.054944   0.004397
    23  C   -0.000000   0.000000   0.508346  -0.054944   4.662062  -0.057966
    24  C   -0.000000  -0.000000   0.543299   0.004397  -0.057966   5.028653
    25  C   -0.000000   0.000000  -0.048740   0.004963   0.536109  -0.045332
    26  C    0.000000   0.000000  -0.005759  -0.000049  -0.037673   0.506144
    27  H   -0.000000  -0.000000  -0.032882  -0.000149   0.003746   0.354832
    28  C    0.000000   0.000000  -0.039093  -0.000061  -0.009487  -0.036645
    29  H    0.000000   0.000000   0.003891  -0.000204  -0.037414   0.000290
    30  H    0.000000   0.000000   0.001896   0.000003   0.000932  -0.035402
    31  H    0.000000   0.000000   0.000901   0.000002   0.002324   0.004058
    32  N    0.000000   0.000000   0.256390   0.348459  -0.038613  -0.079222
    33  N   -0.000000  -0.000000  -0.045530   0.301284   0.263029   0.009633
    34  N   -0.000092   0.000003   0.000000   0.000309   0.000000  -0.000000
    35  N    0.000004  -0.000100  -0.000000   0.000035   0.000000   0.000000
    36  C   -0.000000  -0.000002   0.000000   0.000015   0.000000   0.000000
    37  H   -0.000000  -0.000000  -0.000000  -0.000000  -0.000000  -0.000000
    38  H   -0.000000  -0.000000  -0.000000  -0.000000  -0.000000  -0.000000
    39  H   -0.000000  -0.000000  -0.000000  -0.000003  -0.000000   0.000000
    40  C    0.000000  -0.000000   0.005561  -0.043328  -0.048941  -0.000115
    41  H   -0.000000   0.000000  -0.000138   0.000532  -0.001197  -0.000010
    42  H   -0.000000   0.000000  -0.000138   0.000538  -0.001202  -0.000010
    43  H   -0.000000   0.000000   0.000017   0.000491   0.002615   0.000005
    44  Co   0.000015  -0.000009   0.007106   0.361254   0.005249  -0.001244
              25         26         27         28         29         30
     1  C    0.000002   0.000002  -0.000029   0.000000  -0.000000  -0.000000
     2  C   -0.000021   0.000074   0.000771  -0.000004   0.000003  -0.000003
     3  C    0.000003   0.000084   0.000403  -0.000001  -0.000000   0.000002
     4  C   -0.000000  -0.000001   0.000099   0.000000   0.000000   0.000000
     5  C    0.000000   0.000000   0.000001   0.000000   0.000000  -0.000000
     6  C   -0.000000  -0.000000   0.000000   0.000000   0.000000   0.000000
     7  H    0.000000   0.000139   0.006461   0.000001  -0.000000  -0.000009
     8  H    0.000000   0.000000  -0.000011  -0.000000  -0.000000   0.000000
     9  H   -0.000000  -0.000000   0.000000   0.000000   0.000000   0.000000
    10  C   -0.000000  -0.000000   0.000000   0.000000   0.000000   0.000000
    11  C    0.000000  -0.000000   0.000000  -0.000000   0.000000   0.000000
    12  C    0.000000   0.000000  -0.000000  -0.000000  -0.000000  -0.000000
    13  C   -0.000000   0.000000   0.000000   0.000000   0.000000  -0.000000
    14  C   -0.000000   0.000000  -0.000000  -0.000000   0.000000  -0.000000
    15  C    0.000000  -0.000000  -0.000000  -0.000000   0.000000   0.000000
    16  H   -0.000000  -0.000000   0.000000   0.000000  -0.000000  -0.000000
    17  C   -0.000000  -0.000000   0.000000   0.000000   0.000000   0.000000
    18  H    0.000000   0.000000  -0.000000   0.000000  -0.000000   0.000000
    19  H   -0.000000   0.000000  -0.000000   0.000000   0.000000   0.000000
    20  H    0.000000   0.000000  -0.000000   0.000000   0.000000   0.000000
    21  C   -0.048740  -0.005759  -0.032882  -0.039093   0.003891   0.001896
    22  C    0.004963  -0.000049  -0.000149  -0.000061  -0.000204   0.000003
    23  C    0.536109  -0.037673   0.003746  -0.009487  -0.037414   0.000932
    24  C   -0.045332   0.506144   0.354832  -0.036645   0.000290  -0.035402
    25  C    5.037413  -0.036459   0.000438   0.512665   0.362286   0.003905
    26  C   -0.036459   4.894560  -0.034982   0.559928   0.003761   0.368942
    27  H    0.000438  -0.034982   0.508794   0.003621   0.000013  -0.003846
    28  C    0.512665   0.559928   0.003621   4.888567  -0.034766  -0.036002
    29  H    0.362286   0.003761   0.000013  -0.034766   0.531508  -0.000142
    30  H    0.003905   0.368942  -0.003846  -0.036002  -0.000142   0.530089
    31  H   -0.036831  -0.036586  -0.000146   0.368849  -0.004042  -0.004656
    32  N    0.009433   0.005153  -0.005244  -0.000187  -0.000094  -0.000092
    33  N   -0.083493  -0.000194  -0.000095   0.005319  -0.007386   0.000004
    34  N    0.000000   0.000000   0.000000   0.000000  -0.000000   0.000000
    35  N   -0.000000  -0.000000   0.000000   0.000000  -0.000000  -0.000000
    36  C    0.000000  -0.000000   0.000000   0.000000  -0.000000   0.000000
    37  H   -0.000000   0.000000   0.000000   0.000000  -0.000000  -0.000000
    38  H   -0.000000   0.000000   0.000000   0.000000  -0.000000  -0.000000
    39  H    0.000000  -0.000000   0.000000  -0.000000   0.000000  -0.000000
    40  C   -0.002850   0.000009   0.000003  -0.000115   0.004360  -0.000000
    41  H    0.002658  -0.000001  -0.000000  -0.000005   0.000534  -0.000000
    42  H    0.002661  -0.000001  -0.000000  -0.000005   0.000536  -0.000000
    43  H    0.000013  -0.000000  -0.000000   0.000001  -0.000034  -0.000000
    44  Co  -0.001407   0.000165   0.000041   0.000145   0.000020   0.000015
              31         32         33         34         35         36
     1  C    0.000000  -0.037794   0.001915  -0.037795   0.001915  -0.000013
     2  C   -0.000000   0.262260   0.006185   0.005460  -0.000036   0.000000
     3  C   -0.000000  -0.075771  -0.000172   0.000134   0.000000   0.000000
     4  C   -0.000000   0.004916   0.000002   0.004916   0.000002  -0.000000
     5  C    0.000000   0.000134   0.000000  -0.075770  -0.000172   0.000002
     6  C   -0.000000   0.005460  -0.000036   0.262262   0.006185  -0.000052
     7  H    0.000000  -0.003480   0.000000   0.000008  -0.000000  -0.000000
     8  H   -0.000000  -0.000118  -0.000000  -0.000118  -0.000000   0.000000
     9  H   -0.000000   0.000008  -0.000000  -0.003480   0.000000  -0.000000
    10  C    0.000000   0.000000  -0.000000   0.256386  -0.045531   0.005560
    11  C    0.000000   0.000309   0.000035   0.348457   0.301283  -0.043327
    12  C    0.000000   0.000000   0.000000  -0.038611   0.263031  -0.048942
    13  C   -0.000000  -0.000000   0.000000  -0.079228   0.009634  -0.000115
    14  C    0.000000   0.000000  -0.000000   0.009432  -0.083489  -0.002850
    15  C    0.000000   0.000000  -0.000000   0.005153  -0.000194   0.000009
    16  H   -0.000000   0.000000   0.000000  -0.005244  -0.000095   0.000003
    17  C    0.000000   0.000000   0.000000  -0.000187   0.005319  -0.000115
    18  H    0.000000  -0.000000  -0.000000  -0.000094  -0.007385   0.004360
    19  H    0.000000   0.000000  -0.000000  -0.000092   0.000004  -0.000000
    20  H    0.000000   0.000000  -0.000000   0.000003  -0.000100  -0.000002
    21  C    0.000901   0.256390  -0.045530   0.000000  -0.000000   0.000000
    22  C    0.000002   0.348459   0.301284   0.000309   0.000035   0.000015
    23  C    0.002324  -0.038613   0.263029   0.000000   0.000000   0.000000
    24  C    0.004058  -0.079222   0.009633  -0.000000   0.000000   0.000000
    25  C   -0.036831   0.009433  -0.083493   0.000000  -0.000000   0.000000
    26  C   -0.036586   0.005153  -0.000194   0.000000  -0.000000  -0.000000
    27  H   -0.000146  -0.005244  -0.000095   0.000000   0.000000   0.000000
    28  C    0.368849  -0.000187   0.005319   0.000000   0.000000   0.000000
    29  H   -0.004042  -0.000094  -0.007386  -0.000000  -0.000000  -0.000000
    30  H   -0.004656  -0.000092   0.000004   0.000000  -0.000000   0.000000
    31  H    0.535109   0.000003  -0.000100   0.000000  -0.000000  -0.000000
    32  N    0.000003   7.188309  -0.060930  -0.000066   0.000000   0.000000
    33  N   -0.000100  -0.060930   7.062730   0.000000  -0.000000  -0.000000
    34  N    0.000000  -0.000066   0.000000   7.188328  -0.060930   0.004474
    35  N   -0.000000   0.000000  -0.000000  -0.060930   7.062719   0.300847
    36  C   -0.000000   0.000000  -0.000000   0.004474   0.300847   5.061144
    37  H    0.000000   0.000000   0.000000  -0.000063  -0.041992   0.377118
    38  H    0.000000   0.000000   0.000000  -0.000063  -0.041993   0.377124
    39  H    0.000000  -0.000000   0.000001   0.000156  -0.031954   0.376110
    40  C   -0.000002   0.004474   0.300846   0.000000  -0.000000   0.000000
    41  H   -0.000000  -0.000063  -0.041993   0.000000   0.000000  -0.000000
    42  H   -0.000000  -0.000063  -0.041991   0.000000   0.000000  -0.000000
    43  H   -0.000000   0.000156  -0.031954  -0.000000   0.000001  -0.000001
    44  Co  -0.000009  -0.072174  -0.054796  -0.072176  -0.054797  -0.006183
              37         38         39         40         41         42
     1  C   -0.000001  -0.000001  -0.000014  -0.000013  -0.000001  -0.000001
     2  C   -0.000000  -0.000000   0.000001  -0.000052   0.000004   0.000004
     3  C    0.000000   0.000000   0.000000   0.000002  -0.000000  -0.000000
     4  C    0.000000   0.000000  -0.000000  -0.000000   0.000000   0.000000
     5  C   -0.000000  -0.000000   0.000000   0.000000   0.000000   0.000000
     6  C    0.000004   0.000004  -0.000007   0.000000  -0.000000  -0.000000
     7  H    0.000000   0.000000   0.000000  -0.000000   0.000000   0.000000
     8  H   -0.000000  -0.000000   0.000000   0.000000  -0.000000  -0.000000
     9  H    0.000000   0.000000   0.000000  -0.000000   0.000000   0.000000
    10  C   -0.000138  -0.000138   0.000017   0.000000  -0.000000  -0.000000
    11  C    0.000538   0.000532   0.000491   0.000015  -0.000000  -0.000000
    12  C   -0.001201  -0.001197   0.002615   0.000000  -0.000000  -0.000000
    13  C   -0.000010  -0.000010   0.000005   0.000000  -0.000000  -0.000000
    14  C    0.002661   0.002658   0.000013   0.000000  -0.000000  -0.000000
    15  C   -0.000001  -0.000001  -0.000000  -0.000000   0.000000   0.000000
    16  H   -0.000000  -0.000000  -0.000000   0.000000   0.000000   0.000000
    17  C   -0.000005  -0.000005   0.000001   0.000000   0.000000   0.000000
    18  H    0.000536   0.000534  -0.000034  -0.000000  -0.000000  -0.000000
    19  H   -0.000000  -0.000000  -0.000000   0.000000  -0.000000  -0.000000
    20  H   -0.000000  -0.000000  -0.000000  -0.000000   0.000000   0.000000
    21  C   -0.000000  -0.000000  -0.000000   0.005561  -0.000138  -0.000138
    22  C   -0.000000  -0.000000  -0.000003  -0.043328   0.000532   0.000538
    23  C   -0.000000  -0.000000  -0.000000  -0.048941  -0.001197  -0.001202
    24  C   -0.000000  -0.000000   0.000000  -0.000115  -0.000010  -0.000010
    25  C   -0.000000  -0.000000   0.000000  -0.002850   0.002658   0.002661
    26  C    0.000000   0.000000  -0.000000   0.000009  -0.000001  -0.000001
    27  H    0.000000   0.000000   0.000000   0.000003  -0.000000  -0.000000
    28  C    0.000000   0.000000  -0.000000  -0.000115  -0.000005  -0.000005
    29  H   -0.000000  -0.000000   0.000000   0.004360   0.000534   0.000536
    30  H   -0.000000  -0.000000  -0.000000  -0.000000  -0.000000  -0.000000
    31  H    0.000000   0.000000   0.000000  -0.000002  -0.000000  -0.000000
    32  N    0.000000   0.000000  -0.000000   0.004474  -0.000063  -0.000063
    33  N    0.000000   0.000000   0.000001   0.300846  -0.041993  -0.041991
    34  N   -0.000063  -0.000063   0.000156   0.000000   0.000000   0.000000
    35  N   -0.041992  -0.041993  -0.031954  -0.000000   0.000000   0.000000
    36  C    0.377118   0.377124   0.376110   0.000000  -0.000000  -0.000000
    37  H    0.525753  -0.040088  -0.025605  -0.000000   0.000000  -0.000000
    38  H   -0.040088   0.525748  -0.025611  -0.000000  -0.000000   0.000000
    39  H   -0.025605  -0.025611   0.471023  -0.000001   0.000000   0.000000
    40  C   -0.000000  -0.000000  -0.000001   5.061143   0.377124   0.377118
    41  H    0.000000  -0.000000   0.000000   0.377124   0.525746  -0.040087
    42  H   -0.000000   0.000000   0.000000   0.377118  -0.040087   0.525751
    43  H    0.000000   0.000000  -0.000024   0.376110  -0.025612  -0.025605
    44  Co   0.000524   0.000527   0.008156  -0.006183   0.000527   0.000524
              43         44
     1  C   -0.000014   0.255633
     2  C   -0.000007  -0.064142
     3  C    0.000000   0.006530
     4  C   -0.000000   0.002039
     5  C    0.000000   0.006530
     6  C    0.000001  -0.064142
     7  H    0.000000  -0.000467
     8  H    0.000000   0.000119
     9  H    0.000000  -0.000467
    10  C   -0.000000   0.007106
    11  C   -0.000003   0.361257
    12  C   -0.000000   0.005249
    13  C    0.000000  -0.001244
    14  C    0.000000  -0.001407
    15  C   -0.000000   0.000165
    16  H    0.000000   0.000041
    17  C   -0.000000   0.000145
    18  H    0.000000   0.000020
    19  H   -0.000000   0.000015
    20  H    0.000000  -0.000009
    21  C    0.000017   0.007106
    22  C    0.000491   0.361254
    23  C    0.002615   0.005249
    24  C    0.000005  -0.001244
    25  C    0.000013  -0.001407
    26  C   -0.000000   0.000165
    27  H   -0.000000   0.000041
    28  C    0.000001   0.000145
    29  H   -0.000034   0.000020
    30  H   -0.000000   0.000015
    31  H   -0.000000  -0.000009
    32  N    0.000156  -0.072174
    33  N   -0.031954  -0.054796
    34  N   -0.000000  -0.072176
    35  N    0.000001  -0.054797
    36  C   -0.000001  -0.006183
    37  H    0.000000   0.000524
    38  H    0.000000   0.000527
    39  H   -0.000024   0.008156
    40  C    0.376110  -0.006183
    41  H   -0.025612   0.000527
    42  H   -0.025605   0.000524
    43  H    0.471023   0.008156
    44  Co   0.008156  16.460257
          Atomic-Atomic Spin Densities.
               1          2          3          4          5          6
     1  C   -0.000001   0.000000   0.000000   0.000000   0.000000   0.000000
     2  C    0.000000   0.000000  -0.000000  -0.000000  -0.000000   0.000000
     3  C    0.000000  -0.000000  -0.000000   0.000000   0.000000  -0.000000
     4  C    0.000000  -0.000000   0.000000  -0.000000   0.000000  -0.000000
     5  C    0.000000  -0.000000   0.000000   0.000000  -0.000000  -0.000000
     6  C    0.000000   0.000000  -0.000000  -0.000000  -0.000000   0.000000
     7  H   -0.000000   0.000000   0.000000   0.000000  -0.000000   0.000000
     8  H   -0.000000   0.000000  -0.000000  -0.000000  -0.000000   0.000000
     9  H   -0.000000   0.000000  -0.000000   0.000000   0.000000   0.000000
    10  C   -0.000000   0.000000   0.000000  -0.000000  -0.000000   0.000000
    11  C    0.000000   0.000000   0.000000  -0.000000  -0.000000   0.000000
    12  C    0.000000   0.000000  -0.000000  -0.000000  -0.000000  -0.000000
    13  C   -0.000000  -0.000000   0.000000  -0.000000  -0.000000   0.000000
    14  C   -0.000000  -0.000000   0.000000  -0.000000  -0.000000  -0.000000
    15  C   -0.000000  -0.000000   0.000000  -0.000000   0.000000   0.000000
    16  H   -0.000000   0.000000  -0.000000   0.000000  -0.000000   0.000000
    17  C    0.000000   0.000000  -0.000000  -0.000000   0.000000  -0.000000
    18  H    0.000000  -0.000000  -0.000000   0.000000   0.000000  -0.000000
    19  H    0.000000   0.000000  -0.000000   0.000000  -0.000000  -0.000000
    20  H   -0.000000   0.000000   0.000000  -0.000000  -0.000000  -0.000000
    21  C   -0.000000   0.000000  -0.000000  -0.000000   0.000000   0.000000
    22  C    0.000000   0.000000  -0.000000  -0.000000   0.000000   0.000000
    23  C    0.000000  -0.000000  -0.000000  -0.000000  -0.000000   0.000000
    24  C   -0.000000   0.000000  -0.000000  -0.000000   0.000000  -0.000000
    25  C   -0.000000  -0.000000  -0.000000  -0.000000   0.000000  -0.000000
    26  C   -0.000000   0.000000   0.000000  -0.000000   0.000000  -0.000000
    27  H   -0.000000   0.000000  -0.000000   0.000000  -0.000000   0.000000
    28  C    0.000000  -0.000000   0.000000  -0.000000  -0.000000   0.000000
    29  H    0.000000  -0.000000   0.000000   0.000000  -0.000000  -0.000000
    30  H    0.000000  -0.000000  -0.000000   0.000000  -0.000000   0.000000
    31  H   -0.000000  -0.000000  -0.000000  -0.000000   0.000000   0.000000
    32  N   -0.000000  -0.000000   0.000000   0.000000  -0.000000   0.000000
    33  N   -0.000000   0.000000  -0.000000  -0.000000   0.000000  -0.000000
    34  N   -0.000000   0.000000  -0.000000   0.000000   0.000000  -0.000000
    35  N   -0.000000  -0.000000   0.000000  -0.000000  -0.000000   0.000000
    36  C   -0.000000   0.000000   0.000000  -0.000000   0.000000   0.000000
    37  H   -0.000000   0.000000  -0.000000  -0.000000  -0.000000  -0.000000
    38  H    0.000000  -0.000000   0.000000   0.000000   0.000000   0.000000
    39  H    0.000000   0.000000  -0.000000   0.000000   0.000000  -0.000000
    40  C   -0.000000   0.000000   0.000000  -0.000000   0.000000   0.000000
    41  H    0.000000   0.000000   0.000000   0.000000   0.000000  -0.000000
    42  H   -0.000000  -0.000000  -0.000000  -0.000000  -0.000000   0.000000
    43  H    0.000000  -0.000000   0.000000   0.000000  -0.000000   0.000000
    44  Co   0.000000  -0.000000   0.000000   0.000000   0.000000  -0.000000
               7          8          9         10         11         12
     1  C   -0.000000  -0.000000  -0.000000  -0.000000   0.000000   0.000000
     2  C    0.000000   0.000000   0.000000   0.000000   0.000000   0.000000
     3  C    0.000000  -0.000000  -0.000000   0.000000   0.000000  -0.000000
     4  C    0.000000  -0.000000   0.000000  -0.000000  -0.000000  -0.000000
     5  C   -0.000000  -0.000000   0.000000  -0.000000  -0.000000  -0.000000
     6  C    0.000000   0.000000   0.000000   0.000000   0.000000  -0.000000
     7  H   -0.000000   0.000000  -0.000000   0.000000  -0.000000   0.000000
     8  H    0.000000   0.000000   0.000000   0.000000  -0.000000   0.000000
     9  H   -0.000000   0.000000  -0.000000   0.000000  -0.000000   0.000000
    10  C    0.000000   0.000000   0.000000   0.000000  -0.000000   0.000000
    11  C   -0.000000  -0.000000  -0.000000  -0.000000  -0.000000  -0.000000
    12  C    0.000000   0.000000   0.000000   0.000000  -0.000000   0.000000
    13  C    0.000000  -0.000000   0.000000  -0.000000  -0.000000  -0.000000
    14  C    0.000000   0.000000   0.000000   0.000000  -0.000000   0.000000
    15  C   -0.000000  -0.000000   0.000000   0.000000   0.000000  -0.000000
    16  H    0.000000   0.000000   0.000000   0.000000  -0.000000   0.000000
    17  C    0.000000   0.000000   0.000000  -0.000000  -0.000000   0.000000
    18  H   -0.000000  -0.000000  -0.000000  -0.000000  -0.000000   0.000000
    19  H    0.000000   0.000000   0.000000  -0.000000  -0.000000   0.000000
    20  H    0.000000   0.000000   0.000000   0.000000   0.000000  -0.000000
    21  C    0.000000   0.000000   0.000000   0.000000  -0.000000   0.000000
    22  C   -0.000000  -0.000000  -0.000000  -0.000000  -0.000000  -0.000000
    23  C    0.000000   0.000000   0.000000   0.000000  -0.000000  -0.000000
    24  C    0.000000  -0.000000   0.000000  -0.000000   0.000000   0.000000
    25  C    0.000000   0.000000   0.000000  -0.000000   0.000000   0.000000
    26  C    0.000000  -0.000000  -0.000000  -0.000000  -0.000000  -0.000000
    27  H    0.000000   0.000000   0.000000   0.000000  -0.000000   0.000000
    28  C    0.000000   0.000000   0.000000   0.000000  -0.000000  -0.000000
    29  H   -0.000000  -0.000000  -0.000000   0.000000  -0.000000  -0.000000
    30  H    0.000000   0.000000   0.000000   0.000000   0.000000  -0.000000
    31  H    0.000000   0.000000   0.000000  -0.000000   0.000000   0.000000
    32  N   -0.000000   0.000000   0.000000   0.000000  -0.000000  -0.000000
    33  N    0.000000   0.000000   0.000000  -0.000000   0.000000   0.000000
    34  N    0.000000   0.000000  -0.000000   0.000000   0.000000  -0.000000
    35  N    0.000000   0.000000   0.000000  -0.000000   0.000000   0.000000
    36  C    0.000000  -0.000000  -0.000000  -0.000000   0.000000  -0.000000
    37  H    0.000000   0.000000   0.000000   0.000000   0.000000   0.000000
    38  H   -0.000000  -0.000000  -0.000000  -0.000000  -0.000000  -0.000000
    39  H   -0.000000   0.000000  -0.000000   0.000000  -0.000000  -0.000000
    40  C   -0.000000  -0.000000   0.000000  -0.000000   0.000000   0.000000
    41  H   -0.000000  -0.000000  -0.000000   0.000000  -0.000000  -0.000000
    42  H    0.000000   0.000000   0.000000  -0.000000   0.000000   0.000000
    43  H   -0.000000   0.000000  -0.000000   0.000000  -0.000000  -0.000000
    44  Co  -0.000000  -0.000000  -0.000000  -0.000000  -0.000000  -0.000000
              13         14         15         16         17         18
     1  C   -0.000000  -0.000000  -0.000000  -0.000000   0.000000   0.000000
     2  C   -0.000000  -0.000000  -0.000000   0.000000   0.000000  -0.000000
     3  C    0.000000   0.000000   0.000000  -0.000000  -0.000000  -0.000000
     4  C   -0.000000  -0.000000  -0.000000   0.000000  -0.000000   0.000000
     5  C   -0.000000  -0.000000   0.000000  -0.000000   0.000000   0.000000
     6  C    0.000000  -0.000000   0.000000   0.000000  -0.000000  -0.000000
     7  H    0.000000   0.000000  -0.000000   0.000000   0.000000  -0.000000
     8  H   -0.000000   0.000000  -0.000000   0.000000   0.000000  -0.000000
     9  H    0.000000   0.000000   0.000000   0.000000   0.000000  -0.000000
    10  C   -0.000000   0.000000   0.000000   0.000000  -0.000000  -0.000000
    11  C   -0.000000  -0.000000   0.000000  -0.000000  -0.000000  -0.000000
    12  C   -0.000000   0.000000  -0.000000   0.000000   0.000000   0.000000
    13  C   -0.000000  -0.000000   0.000000   0.000000   0.000000   0.000000
    14  C   -0.000000  -0.000000   0.000000   0.000000   0.000000   0.000000
    15  C    0.000000   0.000000  -0.000000  -0.000000  -0.000000   0.000000
[...]
              Bcc     0.0000     0.000     0.000     0.000  0.5949 -0.3088  0.7421
 
              Baa    -0.0000    -0.000    -0.000    -0.000 -0.0178 -0.6169  0.7868
    41 H(1)   Bbb    -0.0000    -0.000    -0.000    -0.000 -0.2814  0.7582  0.5881
              Bcc     0.0000     0.000     0.000     0.000  0.9594  0.2110  0.1871
 
              Baa    -0.0000    -0.000    -0.000    -0.000  0.9634  0.2079 -0.1690
    42 H(1)   Bbb     0.0000     0.000     0.000     0.000 -0.2652  0.8292 -0.4919
              Bcc     0.0000     0.000     0.000     0.000  0.0379  0.5188  0.8541
 
              Baa    -0.0000    -0.000    -0.000    -0.000 -0.6283 -0.2975  0.7189
    43 H(1)   Bbb    -0.0000    -0.000    -0.000    -0.000 -0.4811  0.8747 -0.0586
              Bcc     0.0000     0.000     0.000     0.000  0.6114  0.3827  0.6927
 
              Baa    -0.0001    -0.015    -0.005    -0.005 -0.0000  0.7045  0.7097
    44 Co(59) Bbb    -0.0000    -0.002    -0.001    -0.001  1.0000  0.0000  0.0000
              Bcc     0.0001     0.017     0.006     0.006  0.0000  0.7097 -0.7045
 

 ---------------------------------------------------------------------------------

   1 Symmetry operations used in ECPInt.
 ECPInt:  NShTT=   11781 NPrTT=   71406 LenC2=    9530 LenP2D=   32080.
 LDataN:  DoStor=T MaxTD1= 7 Len=  274
 Calling FoFJK, ICntrl=      2127 FMM=F ISym2X=0 I1Cent= 0 IOpClX= 1 NMat=1 NMatS=1 NMatT=0.
 -------------------------------------------------------------------
 Center     Atomic                   Forces (Hartrees/Bohr)
 Number     Number              X              Y              Z
 -------------------------------------------------------------------
      1        6          -0.000005337   -0.076656069   -0.000009371
      2        6           0.114610087    0.056860482    0.000005227
      3        6           0.007037072    0.013108610    0.000001541
      4        6           0.000005381    0.007806278   -0.000002391
      5        6          -0.007045926    0.013104884    0.000000566
      6        6          -0.114606248    0.056867782    0.000004189
      7        1           0.001307772    0.004677438   -0.000000838
      8        1          -0.000000475    0.000450253    0.000000060
      9        1          -0.001305202    0.004679301   -0.000000918
     10        6          -0.017184397   -0.013264826    0.000001439
     11        6           0.011833682    0.007713531   -0.000018347
     12        6           0.015548269    0.005211214   -0.000002525
     13        6           0.017600214    0.009300085   -0.000001384
     14        6           0.006545950    0.010898222   -0.000001152
     15        6          -0.016831845    0.011975355    0.000001869
     16        1           0.001290884   -0.001283947   -0.000000481
     17        6          -0.003070678   -0.021150186    0.000000536
     18        1           0.000745570    0.000381113    0.000000344
     19        1           0.000712507   -0.000311813   -0.000000361
     20        1           0.002189677   -0.000304701   -0.000000096
     21        6           0.017154147   -0.013235617   -0.000000156
     22        6          -0.011830935    0.007709424   -0.000022781
     23        6          -0.015510426    0.005211295   -0.000001021
     24        6          -0.017569350    0.009270627   -0.000000787
     25        6          -0.006585478    0.010901740   -0.000001067
     26        6           0.016810257    0.011984629    0.000000636
     27        1          -0.001290471   -0.001277290   -0.000000226
     28        6           0.003092725   -0.021162106    0.000000137
     29        1          -0.000742487    0.000383823   -0.000000009
     30        1          -0.000707725   -0.000317088   -0.000000216
     31        1          -0.002196647   -0.000305260    0.000000127
     32        7          -0.051549245   -0.096773911    0.000007994
     33        7           0.034177056    0.033054901    0.000012509
     34        7           0.051556880   -0.096775556    0.000003674
     35        7          -0.034185528    0.033058724    0.000012602
     36        6          -0.000145881   -0.018558070   -0.000002315
     37        1           0.000895358    0.002037257    0.001662894
     38        1           0.000893623    0.002040720   -0.001664901
     39        1           0.001141544    0.004112159    0.000002229
     40        6           0.000149417   -0.018553855   -0.000002265
     41        1          -0.000894157    0.002040209   -0.001664049
     42        1          -0.000896001    0.002037160    0.001662148
     43        1          -0.001142378    0.004112088    0.000002740
     44       27          -0.000001255    0.048940993    0.000014195
 -------------------------------------------------------------------
 Cartesian Forces:  Max     0.114610087 RMS     0.023941385

 GradGradGradGradGradGradGradGradGradGradGradGradGradGradGradGradGradGrad
 Berny optimization.
 Search for a local minimum.
 Step number   1 out of a maximum of    2
 All quantities printed in internal units (Hartrees-Bohrs-Radians)
 Second derivative matrix not updated -- first step.
 ITU=  0
     Eigenvalues ---    0.00057   0.00058   0.00202   0.00248   0.00253
     Eigenvalues ---    0.00391   0.00456   0.00623   0.00675   0.00707
     Eigenvalues ---    0.00723   0.00836   0.00845   0.01328   0.01596
     Eigenvalues ---    0.01810   0.02015   0.02072   0.02537   0.02542
     Eigenvalues ---    0.03129   0.03165   0.04139   0.04242   0.04473
     Eigenvalues ---    0.04534   0.04722   0.05408   0.05569   0.06312
     Eigenvalues ---    0.06335   0.06861   0.06908   0.07016   0.07071
     Eigenvalues ---    0.07076   0.07176   0.07696   0.07748   0.09617
     Eigenvalues ---    0.10074   0.10294   0.10382   0.11627   0.11919
     Eigenvalues ---    0.11959   0.12359   0.12368   0.12856   0.13325
     Eigenvalues ---    0.13351   0.13416   0.13652   0.14832   0.15521
     Eigenvalues ---    0.15802   0.15890   0.19695   0.20289   0.20629
     Eigenvalues ---    0.21074   0.21901   0.24155   0.25221   0.28720
     Eigenvalues ---    0.29423   0.30074   0.30288   0.31093   0.31927
     Eigenvalues ---    0.32229   0.34924   0.36740   0.37108   0.38154
     Eigenvalues ---    0.38683   0.41413   0.41977   0.44874   0.48161
     Eigenvalues ---    0.48342   0.48867   0.49266   0.51199   0.53127
     Eigenvalues ---    0.53755   0.57288   0.58673   0.64058   0.69430
     Eigenvalues ---    0.71213   0.73023   0.73636   0.74673   0.87624
     Eigenvalues ---    0.89675   0.90943   0.91217   0.92531   0.94178
     Eigenvalues ---    0.95374   0.96840   0.99230   1.03410   1.10902
     Eigenvalues ---    1.15281   1.16272   1.18500   1.19606   1.24002
     Eigenvalues ---    1.28957   1.36729   1.36782   1.43745   1.47927
     Eigenvalues ---    1.50133   1.51602   1.51729   1.62184   1.64863
     Eigenvalues ---    1.66654   1.67236   1.79432   1.80304   2.00299
     Eigenvalues ---    2.01010
 Quadratic step=7.035D-01 exceeds max=3.000D-01 adjusted using Lamda=-9.324D-02.
 Angle between NR and scaled steps=  45.35 degrees.
 Angle between quadratic step and forces=  40.09 degrees.
 Linear search not attempted -- first point.
 B after Tr=    -0.000000   -0.001126   -0.000000
         Rot=    1.000000   -0.000000   -0.000000   -0.000000 Ang=  -0.00 deg.
 Variable       Old X    -DE/DX   Delta X   Delta X   Delta X     New X
                                 (Linear)    (Quad)   (Total)
    X1        0.00001  -0.00001   0.00000  -0.00001  -0.00001   0.00000
    Y1        1.48513  -0.07666   0.00000  -0.13202  -0.13314   1.35199
    Z1        0.00022  -0.00001   0.00000  -0.00002  -0.00002   0.00020
    X2       -2.46905   0.11461   0.00000   0.11815   0.11815  -2.35090
    Y2        2.55339   0.05686   0.00000  -0.00638  -0.00750   2.54589
    Z2        0.00007   0.00001   0.00000   0.00001   0.00001   0.00008
    X3       -2.39415   0.00704   0.00000   0.04955   0.04955  -2.34460
    Y3        5.17433   0.01311   0.00000   0.02370   0.02258   5.19691
    Z3       -0.00002   0.00000   0.00000   0.00001   0.00001  -0.00001
    X4       -0.00000   0.00001   0.00000   0.00000   0.00000  -0.00000
    Y4        6.35950   0.00781   0.00000   0.06012   0.05899   6.41849
    Z4        0.00003  -0.00000   0.00000  -0.00001  -0.00001   0.00002
    X5        2.39416  -0.00705   0.00000  -0.04955  -0.04955   2.34460
    Y5        5.17434   0.01310   0.00000   0.02370   0.02257   5.19691
    Z5        0.00007   0.00000   0.00000   0.00001   0.00001   0.00008
    X6        2.46905  -0.11461   0.00000  -0.11814  -0.11814   2.35090
    Y6        2.55339   0.05687   0.00000  -0.00637  -0.00750   2.54589
    Z6        0.00014   0.00000   0.00000   0.00001   0.00001   0.00015
    X7       -4.10085   0.00131   0.00000   0.03073   0.03073  -4.07013
    Y7        6.30872   0.00468   0.00000   0.01214   0.01101   6.31973
    Z7       -0.00009  -0.00000   0.00000  -0.00000   0.00000  -0.00009
    X8        0.00000  -0.00000   0.00000   0.00000   0.00000   0.00000
    Y8        8.41414   0.00045   0.00000   0.04864   0.04752   8.46166
    Z8       -0.00002   0.00000   0.00000  -0.00001  -0.00000  -0.00002
    X9        4.10085  -0.00131   0.00000  -0.03072  -0.03072   4.07013
    Y9        6.30872   0.00468   0.00000   0.01214   0.01101   6.31974
    Z9        0.00009  -0.00000   0.00000  -0.00000  -0.00000   0.00008
   X10        6.96417  -0.01718   0.00000  -0.02431  -0.02431   6.93986
   Y10        1.11698  -0.01326   0.00000  -0.02277  -0.02389   1.09309
   Z10       -0.00004   0.00000   0.00000   0.00001   0.00001  -0.00004
   X11        3.58477   0.01183   0.00000  -0.01582  -0.01582   3.56896
   Y11       -1.70553   0.00771   0.00000  -0.00115  -0.00227  -1.70780
   Z11        0.00021  -0.00002   0.00000  -0.00003  -0.00003   0.00018
   X12        7.87993   0.01555   0.00000   0.00453   0.00453   7.88445
   Y12       -1.39827   0.00521   0.00000   0.00494   0.00382  -1.39446
   Z12       -0.00016  -0.00000   0.00000   0.00000   0.00000  -0.00016
   X13        8.57720   0.01760   0.00000  -0.00629  -0.00629   8.57091
   Y13        3.14769   0.00930   0.00000   0.00074  -0.00038   3.14731
   Z13       -0.00011  -0.00000   0.00000  -0.00000   0.00000  -0.00011
   X14       10.45135   0.00655   0.00000   0.00563   0.00563  10.45698
   Y14       -1.89301   0.01090   0.00000   0.00730   0.00617  -1.88684
   Z14       -0.00036  -0.00000   0.00000  -0.00000  -0.00000  -0.00036
   X15       11.19794  -0.01683   0.00000  -0.02374  -0.02374  11.17420
   Y15        2.64976   0.01198   0.00000   0.00351   0.00239   2.65214
   Z15       -0.00032   0.00000   0.00000   0.00000   0.00000  -0.00032
   X16        7.87525   0.00129   0.00000   0.00246   0.00246   7.87771
   Y16        5.07427  -0.00128   0.00000  -0.00051  -0.00163   5.07264
   Z16        0.00002  -0.00000   0.00000  -0.00000  -0.00000   0.00001
   X17       12.10305  -0.00307   0.00000  -0.00643  -0.00643  12.09661
   Y17        0.20530  -0.02115   0.00000  -0.01472  -0.01584   0.18946
   Z17       -0.00046   0.00000   0.00000   0.00000   0.00000  -0.00046
   X18       11.16452   0.00075   0.00000   0.00629   0.00629  11.17081
   Y18       -3.81631   0.00038   0.00000   0.00681   0.00568  -3.81062
   Z18       -0.00046   0.00000   0.00000   0.00000   0.00000  -0.00046
   X19       12.49683   0.00071   0.00000  -0.01099  -0.01099  12.48583
   Y19        4.23704  -0.00031   0.00000  -0.00287  -0.00400   4.23305
   Z19       -0.00037  -0.00000   0.00000  -0.00000  -0.00000  -0.00037
   X20       14.12130   0.00219   0.00000   0.00089   0.00089  14.12219
   Y20       -0.13343  -0.00030   0.00000  -0.00553  -0.00665  -0.14008
   Z20       -0.00062  -0.00000   0.00000   0.00000   0.00000  -0.00062
   X21       -6.96414   0.01715   0.00000   0.02429   0.02429  -6.93985
   Y21        1.11695  -0.01324   0.00000  -0.02275  -0.02387   1.09308
   Z21       -0.00008  -0.00000   0.00000   0.00001   0.00001  -0.00007
   X22       -3.58477  -0.01183   0.00000   0.01582   0.01582  -3.56895
   Y22       -1.70552   0.00771   0.00000  -0.00115  -0.00228  -1.70780
   Z22        0.00018  -0.00002   0.00000  -0.00004  -0.00004   0.00014
   X23       -7.87995  -0.01551   0.00000  -0.00451  -0.00451  -7.88445
   Y23       -1.39828   0.00521   0.00000   0.00495   0.00382  -1.39446
   Z23       -0.00013  -0.00000   0.00000   0.00001   0.00001  -0.00012
   X24       -8.57722  -0.01757   0.00000   0.00631   0.00631  -8.57091
   Y24        3.14770   0.00927   0.00000   0.00073  -0.00040   3.14730
   Z24       -0.00010  -0.00000   0.00000  -0.00000  -0.00000  -0.00010
   X25      -10.45131  -0.00659   0.00000  -0.00565  -0.00565 -10.45696
   Y25       -1.89303   0.01090   0.00000   0.00730   0.00617  -1.88686
   Z25       -0.00019  -0.00000   0.00000  -0.00000  -0.00000  -0.00019
   X26      -11.19792   0.01681   0.00000   0.02373   0.02373 -11.17419
   Y26        2.64974   0.01198   0.00000   0.00351   0.00239   2.65212
   Z26       -0.00019   0.00000   0.00000  -0.00000  -0.00000  -0.00019
   X27       -7.87525  -0.00129   0.00000  -0.00245  -0.00245  -7.87770
   Y27        5.07426  -0.00128   0.00000  -0.00050  -0.00163   5.07263
   Z27       -0.00005  -0.00000   0.00000  -0.00000  -0.00000  -0.00005
   X28      -12.10306   0.00309   0.00000   0.00644   0.00644 -12.09661
   Y28        0.20529  -0.02116   0.00000  -0.01472  -0.01585   0.18944
   Z28       -0.00023   0.00000   0.00000  -0.00000  -0.00000  -0.00023
   X29      -11.16451  -0.00074   0.00000  -0.00629  -0.00629 -11.17080
   Y29       -3.81632   0.00038   0.00000   0.00681   0.00569  -3.81064
   Z29       -0.00020  -0.00000   0.00000  -0.00000  -0.00000  -0.00020
   X30      -12.49683  -0.00071   0.00000   0.01100   0.01100 -12.48583
   Y30        4.23703  -0.00032   0.00000  -0.00288  -0.00400   4.23303
   Z30       -0.00020  -0.00000   0.00000  -0.00000  -0.00000  -0.00020
   X31      -14.12128  -0.00220   0.00000  -0.00090  -0.00090 -14.12219
   Y31       -0.13345  -0.00031   0.00000  -0.00553  -0.00665  -0.14011
   Z31       -0.00029   0.00000   0.00000   0.00000   0.00000  -0.00029
   X32       -4.34188  -0.05155   0.00000   0.01899   0.01899  -4.32289
   Y32        0.92591  -0.09677   0.00000  -0.07867  -0.07980   0.84611
   Z32        0.00003   0.00001   0.00000   0.00002   0.00002   0.00004
   X33       -5.86754   0.03418   0.00000   0.04061   0.04061  -5.82693
   Y33       -3.03223   0.03305   0.00000   0.03240   0.03128  -3.00095
   Z33       -0.00009   0.00001   0.00000   0.00002   0.00002  -0.00007
   X34        4.34188   0.05156   0.00000  -0.01899  -0.01899   4.32289
   Y34        0.92592  -0.09678   0.00000  -0.07868  -0.07980   0.84612
   Z34        0.00014   0.00000   0.00000   0.00000   0.00000   0.00015
   X35        5.86756  -0.03419   0.00000  -0.04061  -0.04061   5.82695
   Y35       -3.03223   0.03306   0.00000   0.03241   0.03128  -3.00095
   Z35       -0.00009   0.00001   0.00000   0.00002   0.00002  -0.00007
   X36        6.03083  -0.00015   0.00000  -0.01306  -0.01306   6.01777
   Y36       -5.70827  -0.01856   0.00000   0.00057  -0.00055  -5.70882
   Z36        0.00002  -0.00000   0.00000  -0.00000  -0.00000   0.00002
   X37        7.00762   0.00090   0.00000   0.00149   0.00149   7.00911
   Y37       -6.41619   0.00204   0.00000   0.01487   0.01374  -6.40245
   Z37       -1.69055   0.00166   0.00000   0.00543   0.00542  -1.68512
   X38        7.00679   0.00089   0.00000   0.00149   0.00149   7.00828
   Y38       -6.41623   0.00204   0.00000   0.01488   0.01375  -6.40247
   Z38        1.69107  -0.00166   0.00000  -0.00543  -0.00543   1.68564
   X39        4.12496   0.00114   0.00000  -0.00847  -0.00847   4.11649
   Y39       -6.51886   0.00411   0.00000   0.01201   0.01088  -6.50798
   Z39       -0.00050   0.00000   0.00000   0.00001   0.00001  -0.00049
   X40       -6.03081   0.00015   0.00000   0.01306   0.01306  -6.01775
   Y40       -5.70828  -0.01855   0.00000   0.00057  -0.00055  -5.70883
   Z40        0.00009  -0.00000   0.00000  -0.00000  -0.00000   0.00009
   X41       -7.00665  -0.00089   0.00000  -0.00149  -0.00149  -7.00814
   Y41       -6.41620   0.00204   0.00000   0.01488   0.01375  -6.40245
   Z41        1.69122  -0.00166   0.00000  -0.00543  -0.00543   1.68580
   X42       -7.00771  -0.00090   0.00000  -0.00149  -0.00149  -7.00921
   Y42       -6.41623   0.00204   0.00000   0.01487   0.01374  -6.40249
   Z42       -1.69039   0.00166   0.00000   0.00543   0.00542  -1.68497
   X43       -4.12494  -0.00114   0.00000   0.00847   0.00847  -4.11647
   Y43       -6.51886   0.00411   0.00000   0.01200   0.01088  -6.50798
   Z43       -0.00055   0.00000   0.00000   0.00001   0.00001  -0.00054
   X44        0.00002  -0.00000   0.00000  -0.00000  -0.00000   0.00001
   Y44       -2.29657   0.04894   0.00000   0.07021   0.06909  -2.22748
   Z44        0.00012   0.00001   0.00000  -0.00001  -0.00001   0.00011
         Item               Value     Threshold  Converged?
 Maximum Force            0.114610     0.000450     NO 
 RMS     Force            0.023941     0.000300     NO 
 Maximum Displacement     0.133142     0.001800     NO 
 RMS     Displacement     0.026114     0.001200     NO 
 Predicted change in Energy=-3.577502D-02
 GradGradGradGradGradGradGradGradGradGradGradGradGradGradGradGradGradGrad

 Unable to Open any file for archive entry.
 1\1\GINC-X11P1N5\Force\UPBE1PBE\GenECP\C22H17Co1N4\MAYUMIAO\17-Jul-202
 4\0\\# pbe1pbe em=gd3bj genecp g09default scf=(xqc,maxcycle=64) force 
 guess=read nosymm\\Title Card\\0,1\C,0.00000459,0.78589613,0.0001183\C
 ,-1.30656302,1.35119753,0.0000374\C,-1.26692959,2.73813765,-0.00001053
 \C,-0.00000232,3.3653013,0.00001341\C,1.26693388,2.73814036,0.00003875
 \C,1.30656402,1.35119589,0.00007254\H,-2.17007686,3.33843159,-0.000045
 87\H,0.00000041,4.45256904,-0.00001054\H,2.17007647,3.33843215,0.00004
 615\C,3.68528017,0.59108142,-0.00002357\C,1.89697972,-0.9025262,0.0001
 1372\C,4.16987743,-0.73993484,-0.00008626\C,4.53885781,1.66568614,-0.0
 000562\C,5.53061776,-1.00173871,-0.00019145\C,5.92569515,1.40219127,-0
 .00017122\H,4.16740344,2.68518822,0.00000952\C,6.40465748,0.10864071,-
 0.0002423\H,5.90800961,-2.01950268,-0.00024246\H,6.61303497,2.24214738
 ,-0.00019523\H,7.47266925,-0.07060889,-0.0003294\C,-3.68526572,0.59106
 658,-0.00004033\C,-1.89697925,-0.90252414,0.00009774\C,-4.16988749,-0.
 73993933,-0.00006763\C,-4.5388685,1.66569228,-0.00005535\C,-5.53059523
 ,-1.00174809,-0.00009957\C,-5.92568326,1.40217971,-0.00009986\H,-4.167
 40378,2.68518049,-0.00002383\C,-6.40466235,0.10863694,-0.000123\H,-5.9
 0800266,-2.01951203,-0.00010415\H,-6.61303617,2.24214008,-0.00010682\H
 ,-7.47266158,-0.07061969,-0.00015338\N,-2.29762156,0.48997222,0.000013
 74\N,-3.10496819,-1.60458526,-0.00004669\N,2.29762217,0.48997557,0.000
 07575\N,3.1049781,-1.60458526,-0.00004835\C,3.19137603,-3.02068405,0.0
 0000977\H,3.70827257,-3.39530141,-0.89459951\H,3.70783199,-3.39532029,
 0.89487547\H,2.18283457,-3.4496302,-0.0002663\C,-3.19136727,-3.0206894
 6,0.00004873\H,-3.70776012,-3.39530634,0.89495668\H,-3.70832217,-3.395
 32253,-0.89451768\H,-2.1828231,-3.44963229,-0.0002935\Co,0.00000851,-1
 .21529159,0.00006336\\Version=ES64L-G16RevC.01\HF=-1212.102898\S2=0.\S
 2-1=0.\S2A=0.\RMSD=5.355e-09\RMSF=2.394e-02\Dipole=-0.0000577,-1.56649
 88,-0.0001282\Quadrupole=13.5740698,6.8909252,-20.464995,0.0002209,-0.
 0003811,0.0004212\PG=C01 [X(C22H17Co1N4)]\\@
 The archive entry for this job was punched.


 The chemist is a guest at the physicist's table and
 frequently dines well.
                   -- Richard Bersohn
 Job cpu time:       0 days  0 hours 30 minutes 14.6 seconds.
 Elapsed time:       0 days  0 hours  0 minutes 33.1 seconds.
 File lengths (MBytes):  RWF=    184 Int=      0 D2E=      0 Chk=    162 Scr=      1
 Normal termination of Gaussian 16 at Wed Jul 17 21:01:55 2024.
