 Entering Gaussian System, Link 0=g16
 Input=JOBS/19_A.gjf
 Output=JOBS/19_A.log
 Initial command:
 /data/app/gaussian/C01-avx2//g16/l1.exe "/tmp/Gau-2067912.inp" -scrdir="/tmp/"
 Entering Link 1 = /data/app/gaussian/C01-avx2//g16/l1.exe PID=   2067913.
  
 Copyright (c) 1988-2019, Gaussian, Inc.  All Rights Reserved.
  
 This is part of the Gaussian(R) 16 program.  It is based on
 the Gaussian(R) 09 system (copyright 2009, Gaussian, Inc.),
 the Gaussian(R) 03 system (copyright 2003, Gaussian, Inc.),
 the Gaussian(R) 98 system (copyright 1998, Gaussian, Inc.),
 the Gaussian(R) 94 system (copyright 1995, Gaussian, Inc.),
 the Gaussian 92(TM) system (copyright 1992, Gaussian, Inc.),
 the Gaussian 90(TM) system (copyright 1990, Gaussian, Inc.),
 the Gaussian 88(TM) system (copyright 1988, Gaussian, Inc.),
 the Gaussian 86(TM) system (copyright 1986, Carnegie Mellon
 University), and the Gaussian 82(TM) system (copyright 1983,
 Carnegie Mellon University). Gaussian is a federally registered
 trademark of Gaussian, Inc.
  
 This software contains proprietary and confidential information,
 including trade secrets, belonging to Gaussian, Inc.
  
 This software is provided under written license and may be
 used, copied, transmitted, or stored only in accord with that
 written license.
  
 The following legend is applicable only to US Government
 contracts under FAR:
  
                    RESTRICTED RIGHTS LEGEND
  
 Use, reproduction and disclosure by the US Government is
 subject to restrictions as set forth in subparagraphs (a)
 and (c) of the Commercial Computer Software - Restricted
 Rights clause in FAR 52.227-19.
  
 Gaussian, Inc.
 340 Quinnipiac St., Bldg. 40, Wallingford CT 06492
  
  
 ---------------------------------------------------------------
 Warning -- This program may not be used in any manner that
 competes with the business of Gaussian, Inc. or will provide
 assistance to any competitor of Gaussian, Inc.  The licensee
 of this program is prohibited from giving any competitor of
 Gaussian, Inc. access to this program.  By using this program,
 the user acknowledges that Gaussian, Inc. is engaged in the
 business of creating and licensing software in the field of
 computational chemistry and represents and warrants to the
 licensee that it is not a competitor of Gaussian, Inc. and that
 it will not use this program in any manner prohibited above.
 ---------------------------------------------------------------
  

 Cite this work as:
 Gaussian 16, Revision C.01,
 M. J. Frisch, G. W. Trucks, H. B. Schlegel, G. E. Scuseria, 
 M. A. Robb, J. R. Cheeseman, G. Scalmani, V. Barone, 
 G. A. Petersson, H. Nakatsuji, X. Li, M. Caricato, A. V. Marenich, 
 J. Bloino, B. G. Janesko, R. Gomperts, B. Mennucci, H. P. Hratchian, 
 J. V. Ortiz, A. F. Izmaylov, J. L. Sonnenberg, D. Williams-Young, 
 F. Ding, F. Lipparini, F. Egidi, J. Goings, B. Peng, A. Petrone, 
 T. Henderson, D. Ranasinghe, V. G. Zakrzewski, J. Gao, N. Rega, 
 G. Zheng, W. Liang, M. Hada, M. Ehara, K. Toyota, R. Fukuda, 
 J. Hasegawa, M. Ishida, T. Nakajima, Y. Honda, O. Kitao, H. Nakai, 
 T. Vreven, K. Throssell, J. A. Montgomery, Jr., J. E. Peralta, 
 F. Ogliaro, M. J. Bearpark, J. J. Heyd, E. N. Brothers, K. N. Kudin, 
 V. N. Staroverov, T. A. Keith, R. Kobayashi, J. Normand, 
 K. Raghavachari, A. P. Rendell, J. C. Burant, S. S. Iyengar, 
 J. Tomasi, M. Cossi, J. M. Millam, M. Klene, C. Adamo, R. Cammi, 
 J. W. Ochterski, R. L. Martin, K. Morokuma, O. Farkas, 
 J. B. Foresman, and D. J. Fox, Gaussian, Inc., Wallingford CT, 2019.
 
 ******************************************
 Gaussian 16:  ES64L-G16RevC.01  3-Jul-2019
                17-Jul-2024 
 ******************************************
 %chk=a.chk
 %nprocshared=56
 Will use up to   56 processors via shared memory.
 %mem=96gb
 ----------------------------------------------------------------------
 # pbe1pbe em=gd3bj genecp g09default scf=(xqc,maxcycle=64) force guess
 =read nosymm
 ----------------------------------------------------------------------
 1/10=7,30=1,38=1,158=3,167=1/1,3;
 2/12=2,15=1,17=6,18=5,40=1/2;
 3/5=7,11=2,16=1,17=8,25=1,27=10,30=1,71=1,74=-13,75=-4,116=-2,124=41,158=3/1,2,3;
 4/5=1,60=-1/1;
 5/5=2,7=64,8=3,13=1,38=6,87=10/2,8;
 6/7=2,8=2,9=2,10=2,28=1,87=10/1;
 7/29=1,30=1,87=10/1,2,3,16;
 1/10=7,30=1,158=3,167=1/3;
 99//99;
 Using 2006 physical constants.
 ----------
 Title Card
 ----------
 Symbolic Z-matrix:
 Charge =  0 Multiplicity = 1
 6                     0.00001   0.77642   0.00006 
 6                    -1.28548   1.35323   0.00004 
 6                    -1.25248   2.74492  0. 
 6                    0.         3.38207   0.00001 
 6                     1.25249   2.74492   0.00005 
 6                     1.28547   1.35324   0.00008 
 1                    -2.16331   3.33224  -0.00005 
 1                     0.        4.46579  -0.00001 
 1                     2.16331   3.33224   0.00005 
 6                     3.68286   0.58513  -0.00002 
 6                     1.90518  -0.90098   0.00013 
 6                     4.17167  -0.74195  -0.00009 
 6                     4.53803   1.66557  -0.00005 
 6                     5.53295  -1.002    -0.00019 
 6                     5.91916   1.403    -0.00017 
 1                     4.16603   2.68444   0.00001 
 6                     6.40255   0.1053   -0.00024 
 1                     5.90894  -2.01933  -0.00024 
 1                     6.60932   2.24138  -0.0002 
 1                     7.47078  -0.07097  -0.00033 
 6                    -3.68284   0.58511  -0.00004 
 6                    -1.90518  -0.90099   0.0001 
 6                    -4.17169  -0.74196  -0.00007 
 6                    -4.53804   1.66559  -0.00005 
 6                    -5.53292  -1.00201  -0.0001 
 6                    -5.91914   1.40298  -0.0001 
 1                    -4.16603   2.68443  -0.00002 
 6                    -6.40256   0.1053   -0.00012 
 1                    -5.90893  -2.01934  -0.00011 
 1                    -6.60933   2.24138  -0.00011 
 1                    -7.47077  -0.07098  -0.00015 
 7                    -2.29823   0.47867   0.00001 
 7                    -3.10408  -1.60404  -0.00006 
 7                     2.29823   0.47866   0.00007 
 7                     3.10408  -1.60404  -0.00006 
 6                     3.18918  -3.02223   0.00001 
 1                     3.70797  -3.3927   -0.89412 
 1                     3.70753  -3.39271   0.89439 
 1                     2.1795   -3.44716  -0.00026 
 6                    -3.18917  -3.02224   0.00005 
 1                    -3.70746  -3.3927    0.89447 
 1                    -3.70802  -3.39272  -0.89403 
 1                    -2.17949  -3.44716  -0.00029 
 27                    0.00001  -1.20974   0.0001 
 

 GradGradGradGradGradGradGradGradGradGradGradGradGradGradGradGradGradGrad
 Berny optimization.
 Initialization pass.
 Trust Radius=3.00D-01 FncErr=1.00D-07 GrdErr=1.00D-07 EigMax=2.50D+02 EigMin=1.00D-04
 Number of steps in this run=      2 maximum allowed number of steps=      2.
 GradGradGradGradGradGradGradGradGradGradGradGradGradGradGradGradGradGrad

                          Input orientation:                          
 ---------------------------------------------------------------------
 Center     Atomic      Atomic             Coordinates (Angstroms)
 Number     Number       Type             X           Y           Z
 ---------------------------------------------------------------------
      1          6           0        0.000006    0.776421    0.000061
      2          6           0       -1.285481    1.353234    0.000040
      3          6           0       -1.252484    2.744924   -0.000003
      4          6           0       -0.000005    3.382071    0.000012
      5          6           0        1.252495    2.744922    0.000046
      6          6           0        1.285474    1.353237    0.000079
      7          1           0       -2.163310    3.332243   -0.000045
      8          1           0        0.000001    4.465791   -0.000010
      9          1           0        2.163310    3.332243    0.000048
     10          6           0        3.682857    0.585133   -0.000021
     11          6           0        1.905183   -0.900982    0.000126
     12          6           0        4.171674   -0.741949   -0.000093
     13          6           0        4.538026    1.665574   -0.000055
     14          6           0        5.532949   -1.002002   -0.000195
     15          6           0        5.919155    1.402995   -0.000171
     16          1           0        4.166031    2.684442    0.000010
     17          6           0        6.402548    0.105299   -0.000242
     18          1           0        5.908940   -2.019329   -0.000245
     19          1           0        6.609322    2.241383   -0.000196
     20          1           0        7.470782   -0.070973   -0.000328
     21          6           0       -3.682835    0.585113   -0.000036
     22          6           0       -1.905177   -0.900986    0.000099
     23          6           0       -4.171690   -0.741958   -0.000068
     24          6           0       -4.538044    1.665586   -0.000053
     25          6           0       -5.532918   -1.002011   -0.000100
     26          6           0       -5.919142    1.402982   -0.000099
     27          1           0       -4.166031    2.684434   -0.000023
     28          6           0       -6.402557    0.105296   -0.000123
     29          1           0       -5.908934   -2.019339   -0.000105
     30          1           0       -6.609325    2.241378   -0.000108
     31          1           0       -7.470773   -0.070983   -0.000153
     32          7           0       -2.298228    0.478667    0.000008
     33          7           0       -3.104075   -1.604045   -0.000055
     34          7           0        2.298231    0.478659    0.000074
     35          7           0        3.104084   -1.604044   -0.000055
     36          6           0        3.189179   -3.022234    0.000008
     37          1           0        3.707971   -3.392697   -0.894116
     38          1           0        3.707534   -3.392709    0.894388
     39          1           0        2.179504   -3.447156   -0.000260
     40          6           0       -3.189172   -3.022239    0.000047
     41          1           0       -3.707462   -3.392697    0.894469
     42          1           0       -3.708021   -3.392718   -0.894034
     43          1           0       -2.179493   -3.447158   -0.000288
     44         27           0        0.000007   -1.209737    0.000105
 ---------------------------------------------------------------------
                    Distance matrix (angstroms):
                    1          2          3          4          5
     1  C    0.000000
     2  C    1.408968   0.000000
     3  C    2.333181   1.392081   0.000000
     4  C    2.605650   2.401797   1.405226   0.000000
     5  C    2.333179   2.894498   2.504979   1.405245   0.000000
     6  C    1.408951   2.570955   2.894481   2.401796   1.392076
     7  H    3.348457   2.164962   1.083766   2.163879   3.465930
     8  H    3.689370   3.367562   2.128403   1.083720   2.128410
     9  H    3.348448   3.976259   3.465918   2.163889   1.083757
    10  C    3.687815   5.027362   5.387234   4.624536   3.251361
    11  C    2.538381   3.906639   4.823224   4.687673   3.703865
    12  C    4.439398   5.845539   6.448237   5.866041   4.547513
    13  C    4.624307   5.831878   5.890246   4.851813   3.458281
    14  C    5.811733   7.213745   7.751229   7.059297   5.688737
    15  C    5.952220   7.204809   7.296107   6.241250   4.855769
    16  H    4.582172   5.611693   5.418852   4.224043   2.914164
    17  C    6.437619   7.788654   8.097353   7.192351   5.787112
    18  H    6.536950   7.945683   8.601401   8.005670   6.661875
    19  H    6.769725   7.944604   7.877915   6.707039   5.380441
    20  H    7.518681   8.871331   9.166496   8.230199   6.826153
    21  C    3.687807   2.517403   3.251368   4.624523   5.387231
    22  C    2.538389   2.337847   3.703872   4.687671   4.823229
    23  C    4.439428   3.566515   4.547539   5.866053   6.448265
    24  C    4.624339   3.267526   3.458305   4.851816   5.890272
    25  C    5.811718   4.856737   5.688729   7.059270   7.751215
    26  C    5.952218   4.633928   4.855771   6.241232   7.296107
    27  H    4.582180   3.173273   2.914175   4.224035   5.418863
    28  C    6.437641   5.267049   5.787131   7.192352   8.097372
    29  H    6.536961   5.722811   6.661887   8.005665   8.601410
    30  H    6.769739   5.397418   5.380456   6.707033   7.877929
    31  H    7.518686   6.347143   6.826159   8.230186   9.166500
    32  N    2.317443   1.338105   2.495897   3.702916   4.212309
    33  N    3.911769   3.471711   4.726724   5.873381   6.155746
    34  N    2.317434   3.688886   4.212308   3.702930   2.495900
    35  N    3.911766   5.292804   6.155745   5.873390   4.726721
    36  C    4.959899   6.258378   7.279318   7.154440   6.083653
    37  H    5.650672   6.946794   7.942036   7.774705   6.670777
    38  H    5.650418   6.946512   7.941804   7.774535   6.670651
    39  H    4.752769   5.920293   7.079576   7.168585   6.261085
    40  C    4.959907   4.771666   6.083661   7.154437   7.279324
    41  H    5.650383   5.402763   6.670636   7.774495   7.941759
    42  H    5.650716   5.402974   6.670802   7.774733   7.942086
    43  H    4.752771   4.882931   6.261088   7.168580   7.079576
    44  Co   1.986158   2.867281   4.148262   4.591808   4.148259
                    6          7          8          9         10
     6  C    0.000000
     7  H    3.976252   0.000000
     8  H    3.367556   2.442303   0.000000
     9  H    2.164961   4.326620   2.442302   0.000000
    10  C    2.517425   6.459434   5.350041   3.139369   0.000000
    11  C    2.337850   5.871356   5.694907   4.241087   2.317038
    12  C    3.566504   7.532002   6.672586   4.542308   1.414244
    13  C    3.267514   6.905483   5.332438   2.901218   1.377921
    14  C    4.856768   8.832784   7.778835   5.490004   2.437588
    15  C    4.633949   8.309528   6.664616   4.222366   2.381161
    16  H    3.173281   6.362406   4.530895   2.104884   2.154194
    17  C    5.267048   9.153529   7.746387   5.327692   2.761695
    18  H    5.722818   9.685068   8.773389   6.532156   3.426174
    19  H    5.397422   8.840195   6.973602   4.577881   3.362642
    20  H    6.347158  10.217515   8.740412   6.304850   3.844327
    21  C    5.027337   3.139376   5.350042   6.459422   7.365693
    22  C    3.906633   4.241092   5.694910   5.871355   5.782273
    23  C    5.845552   4.542323   6.672605   7.532021   7.965870
    24  C    5.831888   2.901225   5.332447   6.905497   8.291598
    25  C    7.213713   5.489991   7.778820   8.832761   9.351446
    26  C    7.204788   4.222359   6.664612   8.309517   9.636767
    27  H    5.611683   2.104886   4.530900   6.362406   8.124783
    28  C    7.788657   5.327701   7.746396   9.153538  10.096822
    29  H    7.945677   6.532161   8.773393   9.685069   9.939102
    30  H    7.944599   4.577885   6.973607   8.840199  10.424594
    31  H    8.871317   6.304847   8.740410  10.217509  11.172911
    32  N    3.688875   2.856764   4.602067   5.296057   5.982033
    33  N    5.292793   5.025134   6.817491   7.218883   7.131266
    34  N    1.338120   5.296064   4.602074   2.856772   1.388714
    35  N    3.471722   7.218890   6.817494   5.025135   2.264393
    36  C    4.771671   8.308340   8.138880   6.436752   3.640991
    37  H    5.402959   8.971963   8.735233   6.957752   4.077152
    38  H    5.402793   8.971722   8.735089   6.957690   4.077230
    39  H    4.882937   8.051105   8.207617   6.779418   4.303421
    40  C    6.258374   6.436756   8.138883   8.308339   7.761309
    41  H    6.946455   6.957684   8.735056   8.971664   8.440383
    42  H    6.946835   6.957761   8.735266   8.972012   8.440832
    43  H    5.920286   6.779420   8.207616   8.051100   7.115232
    44  Co   2.867274   5.030857   5.675528   5.030850   4.096943
                   11         12         13         14         15
    11  C    0.000000
    12  C    2.272064   0.000000
    13  C    3.676829   2.435237   0.000000
    14  C    3.629172   1.385892   2.847074   0.000000
    15  C    4.628205   2.766672   1.405868   2.435809   0.000000
    16  H    4.238714   3.426395   1.084653   3.931708   2.171532
    17  C    4.608567   2.386342   2.431234   1.407948   1.384805
    18  H    4.157015   2.156338   3.931655   1.084585   3.422340
    19  H    5.657153   3.852583   2.149843   3.417328   1.085921
    20  H    5.627150   3.366649   3.408321   2.149887   2.140123
    21  C    5.782251   7.965827   8.291560   9.351450   9.636761
    22  C    3.810360   6.078932   6.935568   7.438812   8.156501
    23  C    6.078953   8.343364   9.036336   9.708122  10.316297
    24  C    6.935592   9.036338   9.076070  10.418297  10.460496
    25  C    7.438787   9.708076  10.418249  11.065867  11.701882
    26  C    8.156489  10.316264  10.460465  11.701894  11.838298
    27  H    7.050875   9.014289   8.763486  10.375934  10.166271
    28  C    8.368461  10.608118  11.051281  11.986759  12.389859
    29  H    7.893741  10.161220  11.077796  11.487022  12.313248
    30  H    9.075862  11.186160  11.162213  12.567988  12.556501
    31  H    9.412621  11.661765  12.133708  13.037008  13.470812
    32  N    4.424036   6.584036   6.938525   7.969926   8.269207
    33  N    5.058356   7.326645   8.312167   8.657981   9.511098
    34  N    1.434537   2.235994   2.534847   3.557492   3.737043
    35  N    1.389842   1.372209   3.570237   2.502367   4.119091
    36  C    2.479588   2.482941   4.878005   3.094284   5.199560
    37  H    3.202867   2.835624   5.203310   3.137684   5.356037
    38  H    3.202636   2.835852   5.203458   3.138137   5.356332
    39  H    2.560910   3.359597   5.630509   4.150226   6.124456
    40  C    5.518349   7.705957   9.037985   8.953030  10.126417
    41  H    6.205665   8.361070   9.714646   9.586503  10.792164
    42  H    6.206153   8.361537   9.715082   9.586970  10.792608
    43  H    4.813272   6.903295   8.441865   8.090769   9.439920
    44  Co   1.930032   4.197812   5.372246   5.536840   6.470138
                   16         17         18         19         20
    16  H    0.000000
    17  C    3.413794   0.000000
    18  H    5.016293   2.181214   0.000000
    19  H    2.483138   2.146069   4.317894   0.000000
    20  H    4.302754   1.082680   2.497087   2.467611   0.000000
    21  C    8.124770  10.096791   9.939078  10.424574  11.172897
    22  C    7.050877   8.368447   7.893739   9.075857   9.412627
    23  C    9.014311  10.608127  10.161239  11.186177  11.661792
    24  C    8.763503  11.051292  11.077819  11.162227  12.133736
    25  C   10.375911  11.986721  11.486995  12.567959  13.036988
    26  C   10.166261  12.389836  12.313234  12.556486  13.470806
    27  H    8.332062  10.878731  11.118922  10.784457  11.958582
    28  C   10.878742  12.805105  12.493478  13.186048  13.874459
    29  H   11.118924  12.493466  11.817874  13.223483  13.520834
    30  H   10.784461  13.186041  13.223487  13.218647  14.268721
    31  H   11.958577  13.874441  13.520827  14.268711  14.941555
    32  N    6.830234   8.708784   8.578904   9.080288   9.784461
    33  N    8.440708   9.659075   9.022577  10.446885  10.685407
    34  N    2.890355   4.121263   4.390576   4.657542   5.201671
    35  N    4.418013   3.715067   2.835433   5.203269   4.627998
    36  C    5.789679   4.484106   2.898779   6.277185   5.200199
    37  H    6.159618   4.505078   2.743977   6.399984   5.098182
    38  H    6.159699   4.505499   2.744582   6.400286   5.098675
    39  H    6.445369   5.518518   3.993418   7.209908   6.276643
    40  C    9.309415  10.088735   9.153221  11.122778  11.060949
    41  H    9.986168  10.735398   9.755093  11.788949  11.695625
    42  H    9.986585  10.735856   9.755563  11.789386  11.696083
    43  H    8.823955   9.288239   8.213492  10.469134  10.223817
    44  Co   5.702664   6.536195   5.964137   7.456090   7.557067
                   21         22         23         24         25
    21  C    0.000000
    22  C    2.317015   0.000000
    23  C    1.414247   2.272085   0.000000
    24  C    1.377971   3.676857   2.435259   0.000000
    25  C    2.437573   3.629147   1.385846   2.847077   0.000000
    26  C    2.381172   4.628194   2.766651   1.405843   2.435807
    27  H    2.154211   4.238714   3.426397   1.084640   3.931698
    28  C    2.761722   4.608582   2.386338   2.431237   1.407977
    29  H    3.426177   4.157016   2.156321   3.931668   1.084595
    30  H    3.362671   5.657160   3.852579   2.149824   3.417341
    31  H    3.844337   5.627145   3.366624   3.408309   2.149905
    32  N    1.388693   1.434549   2.236020   2.534867   3.557474
    33  N    2.264370   1.389837   1.372222   3.570259   2.502343
    34  N    5.982014   4.424033   6.584056   6.938549   7.969898
    35  N    7.131247   5.058358   7.326669   8.312196   8.657958
    36  C    7.761284   5.518347   7.705975   9.038010   8.953004
    37  H    8.440757   6.206100   8.361507   9.715058   9.586901
    38  H    8.440416   6.205720   8.361142   9.714728   9.586527
    39  H    7.115210   4.813274   6.903315   8.441895   8.090747
    40  C    3.640974   2.479588   2.482946   4.878029   3.094264
    41  H    4.077219   3.202616   2.835863   5.203486   3.138140
    42  H    4.077132   3.202881   2.835611   5.203324   3.137650
    43  H    4.303399   2.560906   3.359606   5.630534   4.150205
    44  Co   4.096928   1.930040   4.197842   5.372280   5.536823
                   26         27         28         29         30
    26  C    0.000000
    27  H    2.171524   0.000000
    28  C    1.384803   3.413795   0.000000
    29  H    3.422337   5.016293   2.181224   0.000000
    30  H    1.085938   2.483140   2.146066   4.317900   0.000000
    31  H    2.140124   4.302748   1.082663   2.497084   2.467611
    32  N    3.737028   2.890345   4.121276   4.390584   4.657543
    33  N    4.119079   4.418008   3.715081   2.835437   5.203274
    34  N    8.269196   6.830236   8.708795   8.578902   9.080294
    35  N    9.511089   8.440711   9.659092   9.022581  10.446894
    36  C   10.126403   9.309413  10.088748   9.153221  11.122783
    37  H   10.792549   9.986532  10.735826   9.755523  11.789345
    38  H   10.792203   9.986223  10.735461   9.755138  11.789005
    39  H    9.439910   8.823956   9.288255   8.213495  10.469142
    40  C    5.199550   5.789678   4.484119   2.898779   6.277190
    41  H    5.356335   6.159701   4.505529   2.744605   6.400303
    42  H    5.356016   6.159610   4.505075   2.743956   6.399977
    43  H    6.124446   6.445367   5.518532   3.993419   7.209914
    44  Co   6.470134   5.702669   6.536218   5.964147   7.456103
                   31         32         33         34         35
    31  H    0.000000
    32  N    5.201666   0.000000
    33  N    4.627994   2.233176   0.000000
    34  N    9.784454   4.596460   5.789868   0.000000
    35  N   10.685404   5.789876   6.208159   2.233170   0.000000
    36  C   11.060942   6.509066   6.451070   3.612484   1.420741
    37  H   11.696036   7.201482   7.099479   4.215962   2.088852
    38  H   11.695666   7.201156   7.099110   4.215854   2.088900
    39  H   10.223814   5.955012   5.595826   3.927610   2.062016
    40  C    5.200194   3.612495   1.420745   6.509061   6.451073
    41  H    5.098690   4.215858   2.088906   7.201089   7.099056
    42  H    5.098161   4.215975   2.088852   7.201532   7.099530
    43  H    6.276639   3.927620   2.062018   5.955002   5.595824
    44  Co   7.557071   2.851770   3.129027   2.851756   3.129020
                   36         37         38         39         40
    36  C    0.000000
    37  H    1.098110   0.000000
    38  H    1.098116   1.788504   0.000000
    39  H    1.095446   1.771484   1.771507   0.000000
    40  C    6.378350   6.964721   6.964312   5.385465   0.000000
    41  H    6.964263   7.628085   7.414996   5.954819   1.098114
    42  H    6.964764   7.415992   7.628166   5.955229   1.098107
    43  H    5.385462   5.955177   5.954871   4.358997   1.095448
    44  Co   3.668237   4.394763   4.394413   3.123500   3.668246
                   41         42         43         44
    41  H    0.000000
    42  H    1.788503   0.000000
    43  H    1.771509   1.771481   0.000000
    44  Co   4.394375   4.394811   3.123504   0.000000
 Symmetry turned off by external request.
 Stoichiometry    C22H17CoN4
 Framework group  C1[X(C22H17CoN4)]
 Deg. of freedom   126
 Full point group                 C1      NOp   1
 Rotational constants (GHZ):           0.4674226           0.1009403           0.0831015
 General basis read from cards:  (5D, 7F)
 ======================================================================================================
                                       Pseudopotential Parameters
 ======================================================================================================
  Center     Atomic      Valence      Angular      Power
  Number     Number     Electrons     Momentum     of R      Exponent        Coefficient   SO-Coeffient
 ======================================================================================================
    1          6
                                   No pseudopotential on this center.
    2          6
                                   No pseudopotential on this center.
    3          6
                                   No pseudopotential on this center.
    4          6
                                   No pseudopotential on this center.
    5          6
                                   No pseudopotential on this center.
    6          6
                                   No pseudopotential on this center.
    7          1
                                   No pseudopotential on this center.
    8          1
                                   No pseudopotential on this center.
    9          1
                                   No pseudopotential on this center.
   10          6
                                   No pseudopotential on this center.
   11          6
                                   No pseudopotential on this center.
   12          6
                                   No pseudopotential on this center.
   13          6
                                   No pseudopotential on this center.
   14          6
                                   No pseudopotential on this center.
   15          6
                                   No pseudopotential on this center.
   16          1
                                   No pseudopotential on this center.
   17          6
                                   No pseudopotential on this center.
   18          1
                                   No pseudopotential on this center.
   19          1
                                   No pseudopotential on this center.
   20          1
                                   No pseudopotential on this center.
   21          6
                                   No pseudopotential on this center.
   22          6
                                   No pseudopotential on this center.
   23          6
                                   No pseudopotential on this center.
   24          6
                                   No pseudopotential on this center.
   25          6
                                   No pseudopotential on this center.
   26          6
                                   No pseudopotential on this center.
   27          1
                                   No pseudopotential on this center.
   28          6
                                   No pseudopotential on this center.
   29          1
                                   No pseudopotential on this center.
   30          1
                                   No pseudopotential on this center.
   31          1
                                   No pseudopotential on this center.
   32          7
                                   No pseudopotential on this center.
   33          7
                                   No pseudopotential on this center.
   34          7
                                   No pseudopotential on this center.
   35          7
                                   No pseudopotential on this center.
   36          6
                                   No pseudopotential on this center.
   37          1
                                   No pseudopotential on this center.
   38          1
                                   No pseudopotential on this center.
   39          1
                                   No pseudopotential on this center.
   40          6
                                   No pseudopotential on this center.
   41          1
                                   No pseudopotential on this center.
   42          1
                                   No pseudopotential on this center.
   43          1
                                   No pseudopotential on this center.
   44         27           17
                                      F and up 
                                                     2        1.0000000        0.00000000    0.00000000
                                      S - F
                                                     2       23.6600000      283.96056600    0.00000000
                                                     2       10.6100000       47.15684600    0.00000000
                                      P - F
                                                     2       25.0400000      182.21223600    0.00000000
                                                     2       10.4400000       35.23335200    0.00000000
                                      D - F
                                                     2       29.5400000      -26.47533300    0.00000000
                                                     2       10.1800000       -1.82578700    0.00000000
 ======================================================================================================
   441 basis functions,   871 primitive gaussians,   473 cartesian basis functions
    97 alpha electrons       97 beta electrons
       nuclear repulsion energy      2492.3423909025 Hartrees.
 NAtoms=   44 NActive=   44 NUniq=   44 SFac= 1.00D+00 NAtFMM=   60 NAOKFM=F Big=F
 Integral buffers will be    131072 words long.
 Raffenetti 2 integral format.
 Two-electron integral symmetry is turned off.
 Nuclear repulsion after empirical dispersion term =     2492.2831878016 Hartrees.
 One-electron integrals computed using PRISM.
   1 Symmetry operations used in ECPInt.
 ECPInt:  NShTT=   11781 NPrTT=   71406 LenC2=    9532 LenP2D=   32096.
 LDataN:  DoStor=T MaxTD1= 6 Len=  172
 NBasis=   441 RedAO= T EigKep=  3.27D-04  NBF=   441
 NBsUse=   441 1.00D-06 EigRej= -1.00D+00 NBFU=   441
 Initial guess from the checkpoint file:  "a.chk"
 B after Tr=    -0.000000    0.000287    0.000008
         Rot=    1.000000    0.000001   -0.000000    0.000000 Ang=   0.00 deg.
 Initial guess <Sx>= 0.0000 <Sy>= 0.0000 <Sz>= 0.0000 <S**2>= 0.0000 S= 0.0000
 Requested convergence on RMS density matrix=1.00D-08 within  64 cycles.
 Requested convergence on MAX density matrix=1.00D-06.
 Requested convergence on             energy=1.00D-06.
 No special actions if energy rises.
 EnCoef did     3 forward-backward iterations
 Restarting incremental Fock formation.
 SCF Done:  E(UPBE1PBE) =  -1212.11912033     A.U. after   21 cycles
            NFock= 21  Conv=0.47D-08     -V/T= 2.0551
 <Sx>= 0.0000 <Sy>= 0.0000 <Sz>= 0.0000 <S**2>= 0.0000 S= 0.0000
 <L.S>=  0.00000000000    
 Annihilation of the first spin contaminant:
 S**2 before annihilation     0.0000,   after     0.0000
 QCSCF skips out because SCF is already converged.

 **********************************************************************

            Population analysis using the SCF Density.

 **********************************************************************

 Alpha  occ. eigenvalues --  -14.45806 -14.45805 -14.45110 -14.45110 -10.28281
 Alpha  occ. eigenvalues --  -10.28280 -10.27616 -10.27616 -10.27440 -10.27439
 Alpha  occ. eigenvalues --  -10.27330 -10.27330 -10.25002 -10.25001 -10.24154
 Alpha  occ. eigenvalues --  -10.24154 -10.23891 -10.23891 -10.23451 -10.23451
 Alpha  occ. eigenvalues --  -10.23394 -10.23394 -10.21296 -10.21293 -10.20957
 Alpha  occ. eigenvalues --  -10.19141  -3.83318  -2.35015  -2.35007  -2.31307
 Alpha  occ. eigenvalues --   -1.06060  -1.05988  -0.97467  -0.97148  -0.88271
 Alpha  occ. eigenvalues --   -0.88023  -0.84812  -0.80510  -0.78878  -0.77984
 Alpha  occ. eigenvalues --   -0.77881  -0.75617  -0.75111  -0.72935  -0.71649
 Alpha  occ. eigenvalues --   -0.66713  -0.65316  -0.64553  -0.64119  -0.62696
 Alpha  occ. eigenvalues --   -0.61525  -0.58876  -0.57259  -0.56718  -0.54165
 Alpha  occ. eigenvalues --   -0.53247  -0.51935  -0.49824  -0.49763  -0.49113
 Alpha  occ. eigenvalues --   -0.48400  -0.47960  -0.47457  -0.46669  -0.46242
 Alpha  occ. eigenvalues --   -0.45776  -0.45354  -0.45064  -0.44770  -0.44218
 Alpha  occ. eigenvalues --   -0.42346  -0.41864  -0.40924  -0.38577  -0.38463
 Alpha  occ. eigenvalues --   -0.38218  -0.37481  -0.36982  -0.36869  -0.36481
 Alpha  occ. eigenvalues --   -0.35441  -0.34589  -0.34399  -0.33910  -0.31505
 Alpha  occ. eigenvalues --   -0.29016  -0.26665  -0.25904  -0.24842  -0.24493
 Alpha  occ. eigenvalues --   -0.22751  -0.21206  -0.20486  -0.20384  -0.16259
 Alpha  occ. eigenvalues --   -0.15478  -0.15097
 Alpha virt. eigenvalues --   -0.04705  -0.02460  -0.00608  -0.00064   0.00789
 Alpha virt. eigenvalues --    0.01338   0.02041   0.03335   0.05409   0.05878
 Alpha virt. eigenvalues --    0.06386   0.07322   0.09198   0.09349   0.10113
 Alpha virt. eigenvalues --    0.10657   0.12670   0.13108   0.14174   0.14211
 Alpha virt. eigenvalues --    0.15324   0.15736   0.15878   0.16061   0.16528
 Alpha virt. eigenvalues --    0.16820   0.17224   0.17814   0.18048   0.18332
 Alpha virt. eigenvalues --    0.19292   0.19344   0.19778   0.20421   0.22160
 Alpha virt. eigenvalues --    0.22234   0.22513   0.22816   0.23008   0.23894
 Alpha virt. eigenvalues --    0.25999   0.26306   0.26730   0.27792   0.27923
 Alpha virt. eigenvalues --    0.28511   0.29428   0.29521   0.31312   0.31435
 Alpha virt. eigenvalues --    0.31968   0.33439   0.33858   0.34564   0.34763
 Alpha virt. eigenvalues --    0.36383   0.37696   0.38094   0.39656   0.39725
 Alpha virt. eigenvalues --    0.41376   0.42986   0.44505   0.45513   0.46532
 Alpha virt. eigenvalues --    0.47581   0.48200   0.50342   0.51646   0.52075
 Alpha virt. eigenvalues --    0.52188   0.53559   0.53782   0.56071   0.56105
 Alpha virt. eigenvalues --    0.56955   0.56968   0.57060   0.58088   0.58547
 Alpha virt. eigenvalues --    0.58776   0.59166   0.59387   0.60225   0.61482
 Alpha virt. eigenvalues --    0.61581   0.61925   0.63023   0.63105   0.63323
 Alpha virt. eigenvalues --    0.63387   0.63412   0.63511   0.64343   0.64432
 Alpha virt. eigenvalues --    0.65320   0.66079   0.66456   0.67043   0.67259
 Alpha virt. eigenvalues --    0.67735   0.68452   0.68523   0.68882   0.70973
 Alpha virt. eigenvalues --    0.72423   0.72703   0.74076   0.75905   0.76283
 Alpha virt. eigenvalues --    0.76703   0.77430   0.78421   0.80011   0.80178
 Alpha virt. eigenvalues --    0.81149   0.81870   0.82763   0.83683   0.83907
 Alpha virt. eigenvalues --    0.84129   0.84519   0.85073   0.86384   0.86792
 Alpha virt. eigenvalues --    0.87237   0.87406   0.88092   0.90122   0.90475
 Alpha virt. eigenvalues --    0.90601   0.91656   0.91719   0.92770   0.92871
 Alpha virt. eigenvalues --    0.93598   0.93843   0.95374   0.95893   0.96044
 Alpha virt. eigenvalues --    0.96064   0.97302   0.98033   0.98039   0.98273
 Alpha virt. eigenvalues --    0.98407   1.00185   1.00360   1.01894   1.01990
 Alpha virt. eigenvalues --    1.02706   1.03734   1.04215   1.06571   1.07283
 Alpha virt. eigenvalues --    1.09427   1.09930   1.10885   1.11235   1.14160
 Alpha virt. eigenvalues --    1.15188   1.15327   1.16415   1.16906   1.18514
 Alpha virt. eigenvalues --    1.18660   1.19282   1.20410   1.23813   1.24118
 Alpha virt. eigenvalues --    1.24651   1.26035   1.27118   1.27183   1.28540
 Alpha virt. eigenvalues --    1.29333   1.29607   1.30546   1.33340   1.33429
 Alpha virt. eigenvalues --    1.33932   1.36121   1.36305   1.37146   1.39159
 Alpha virt. eigenvalues --    1.40678   1.41682   1.42052   1.42754   1.43123
 Alpha virt. eigenvalues --    1.44924   1.45020   1.45368   1.46786   1.47991
 Alpha virt. eigenvalues --    1.48016   1.49273   1.49919   1.49929   1.50938
 Alpha virt. eigenvalues --    1.51578   1.51890   1.53529   1.55555   1.57744
 Alpha virt. eigenvalues --    1.58074   1.60309   1.61569   1.65921   1.66088
 Alpha virt. eigenvalues --    1.66141   1.70230   1.72553   1.72799   1.76290
 Alpha virt. eigenvalues --    1.77516   1.78699   1.80145   1.80497   1.82187
 Alpha virt. eigenvalues --    1.82782   1.86262   1.87288   1.87756   1.87823
 Alpha virt. eigenvalues --    1.88799   1.88808   1.90680   1.91420   1.92226
 Alpha virt. eigenvalues --    1.93889   1.95402   1.95632   1.96546   1.97379
 Alpha virt. eigenvalues --    1.98285   1.98316   1.98814   1.99507   1.99645
 Alpha virt. eigenvalues --    1.99674   2.00295   2.02096   2.02998   2.03920
 Alpha virt. eigenvalues --    2.06414   2.07190   2.07250   2.09682   2.10036
 Alpha virt. eigenvalues --    2.12840   2.13026   2.14266   2.15233   2.15303
 Alpha virt. eigenvalues --    2.16353   2.16676   2.16823   2.19109   2.20034
 Alpha virt. eigenvalues --    2.20456   2.21489   2.21645   2.21802   2.23450
 Alpha virt. eigenvalues --    2.24466   2.24997   2.26082   2.27178   2.27698
 Alpha virt. eigenvalues --    2.28023   2.28305   2.28519   2.28522   2.29132
 Alpha virt. eigenvalues --    2.33000   2.35126   2.38845   2.40173   2.40710
 Alpha virt. eigenvalues --    2.40953   2.44051   2.44698   2.47088   2.47699
 Alpha virt. eigenvalues --    2.51893   2.52097   2.52563   2.57273   2.58854
 Alpha virt. eigenvalues --    2.59293   2.59429   2.60838   2.61186   2.62264
 Alpha virt. eigenvalues --    2.64484   2.64986   2.66467   2.68631   2.69671
 Alpha virt. eigenvalues --    2.69826   2.70464   2.72587   2.75139   2.75841
 Alpha virt. eigenvalues --    2.76115   2.76208   2.77641   2.79009   2.80748
 Alpha virt. eigenvalues --    2.82206   2.83505   2.86301   2.88521   2.88647
 Alpha virt. eigenvalues --    2.93633   2.94761   2.98017   2.98401   2.99933
 Alpha virt. eigenvalues --    3.01582   3.06530   3.07313   3.16643   3.20335
 Alpha virt. eigenvalues --    3.20388   3.30066   3.40529   3.47506   3.47723
 Alpha virt. eigenvalues --    3.52826   3.53623   3.61968   5.66594   5.67030
 Alpha virt. eigenvalues --    5.67644   5.68529   5.68663   5.69777   5.71995
 Alpha virt. eigenvalues --   45.81876  45.98087  46.03205  63.11660
  Beta  occ. eigenvalues --  -14.45806 -14.45805 -14.45110 -14.45110 -10.28281
  Beta  occ. eigenvalues --  -10.28280 -10.27616 -10.27616 -10.27440 -10.27439
  Beta  occ. eigenvalues --  -10.27330 -10.27330 -10.25002 -10.25001 -10.24154
  Beta  occ. eigenvalues --  -10.24154 -10.23891 -10.23891 -10.23451 -10.23451
  Beta  occ. eigenvalues --  -10.23394 -10.23394 -10.21296 -10.21293 -10.20957
  Beta  occ. eigenvalues --  -10.19141  -3.83318  -2.35015  -2.35007  -2.31307
  Beta  occ. eigenvalues --   -1.06060  -1.05988  -0.97467  -0.97148  -0.88271
  Beta  occ. eigenvalues --   -0.88023  -0.84812  -0.80510  -0.78878  -0.77984
  Beta  occ. eigenvalues --   -0.77881  -0.75617  -0.75111  -0.72935  -0.71649
  Beta  occ. eigenvalues --   -0.66713  -0.65316  -0.64553  -0.64119  -0.62696
  Beta  occ. eigenvalues --   -0.61525  -0.58876  -0.57259  -0.56718  -0.54165
  Beta  occ. eigenvalues --   -0.53247  -0.51935  -0.49824  -0.49763  -0.49113
  Beta  occ. eigenvalues --   -0.48400  -0.47960  -0.47457  -0.46669  -0.46242
  Beta  occ. eigenvalues --   -0.45776  -0.45354  -0.45064  -0.44770  -0.44218
  Beta  occ. eigenvalues --   -0.42346  -0.41864  -0.40924  -0.38577  -0.38463
  Beta  occ. eigenvalues --   -0.38218  -0.37481  -0.36982  -0.36869  -0.36481
  Beta  occ. eigenvalues --   -0.35441  -0.34589  -0.34399  -0.33910  -0.31505
  Beta  occ. eigenvalues --   -0.29016  -0.26665  -0.25904  -0.24842  -0.24493
  Beta  occ. eigenvalues --   -0.22751  -0.21206  -0.20486  -0.20384  -0.16259
  Beta  occ. eigenvalues --   -0.15478  -0.15098
  Beta virt. eigenvalues --   -0.04705  -0.02460  -0.00608  -0.00064   0.00789
  Beta virt. eigenvalues --    0.01338   0.02041   0.03335   0.05409   0.05878
  Beta virt. eigenvalues --    0.06386   0.07322   0.09198   0.09349   0.10113
  Beta virt. eigenvalues --    0.10657   0.12670   0.13108   0.14174   0.14211
  Beta virt. eigenvalues --    0.15324   0.15736   0.15878   0.16061   0.16528
  Beta virt. eigenvalues --    0.16820   0.17224   0.17814   0.18048   0.18332
  Beta virt. eigenvalues --    0.19292   0.19344   0.19778   0.20421   0.22160
  Beta virt. eigenvalues --    0.22234   0.22513   0.22816   0.23008   0.23894
  Beta virt. eigenvalues --    0.25999   0.26306   0.26730   0.27792   0.27923
  Beta virt. eigenvalues --    0.28511   0.29428   0.29521   0.31312   0.31435
  Beta virt. eigenvalues --    0.31968   0.33439   0.33858   0.34564   0.34763
  Beta virt. eigenvalues --    0.36383   0.37696   0.38094   0.39656   0.39725
  Beta virt. eigenvalues --    0.41376   0.42986   0.44505   0.45513   0.46532
  Beta virt. eigenvalues --    0.47581   0.48200   0.50342   0.51646   0.52075
  Beta virt. eigenvalues --    0.52188   0.53559   0.53782   0.56071   0.56105
  Beta virt. eigenvalues --    0.56955   0.56968   0.57060   0.58088   0.58547
  Beta virt. eigenvalues --    0.58776   0.59166   0.59387   0.60225   0.61482
  Beta virt. eigenvalues --    0.61581   0.61925   0.63023   0.63105   0.63323
  Beta virt. eigenvalues --    0.63387   0.63412   0.63511   0.64343   0.64432
  Beta virt. eigenvalues --    0.65320   0.66079   0.66456   0.67043   0.67259
  Beta virt. eigenvalues --    0.67735   0.68452   0.68523   0.68882   0.70973
  Beta virt. eigenvalues --    0.72423   0.72703   0.74076   0.75905   0.76283
  Beta virt. eigenvalues --    0.76703   0.77430   0.78421   0.80011   0.80178
  Beta virt. eigenvalues --    0.81149   0.81870   0.82763   0.83683   0.83907
  Beta virt. eigenvalues --    0.84129   0.84519   0.85073   0.86384   0.86792
  Beta virt. eigenvalues --    0.87237   0.87406   0.88092   0.90122   0.90475
  Beta virt. eigenvalues --    0.90601   0.91656   0.91719   0.92770   0.92871
  Beta virt. eigenvalues --    0.93598   0.93843   0.95374   0.95893   0.96044
  Beta virt. eigenvalues --    0.96064   0.97302   0.98033   0.98039   0.98273
  Beta virt. eigenvalues --    0.98407   1.00185   1.00360   1.01894   1.01990
  Beta virt. eigenvalues --    1.02706   1.03734   1.04215   1.06571   1.07283
  Beta virt. eigenvalues --    1.09427   1.09930   1.10885   1.11235   1.14160
  Beta virt. eigenvalues --    1.15188   1.15327   1.16415   1.16906   1.18514
  Beta virt. eigenvalues --    1.18660   1.19282   1.20410   1.23813   1.24118
  Beta virt. eigenvalues --    1.24651   1.26035   1.27118   1.27183   1.28540
  Beta virt. eigenvalues --    1.29333   1.29607   1.30546   1.33340   1.33429
  Beta virt. eigenvalues --    1.33932   1.36121   1.36305   1.37146   1.39159
  Beta virt. eigenvalues --    1.40678   1.41682   1.42052   1.42754   1.43123
  Beta virt. eigenvalues --    1.44924   1.45020   1.45368   1.46786   1.47991
  Beta virt. eigenvalues --    1.48016   1.49273   1.49919   1.49929   1.50938
  Beta virt. eigenvalues --    1.51578   1.51890   1.53529   1.55555   1.57744
  Beta virt. eigenvalues --    1.58074   1.60309   1.61569   1.65921   1.66088
  Beta virt. eigenvalues --    1.66141   1.70230   1.72553   1.72799   1.76290
  Beta virt. eigenvalues --    1.77516   1.78699   1.80145   1.80497   1.82187
  Beta virt. eigenvalues --    1.82782   1.86262   1.87288   1.87756   1.87823
  Beta virt. eigenvalues --    1.88799   1.88808   1.90680   1.91420   1.92226
  Beta virt. eigenvalues --    1.93889   1.95402   1.95632   1.96546   1.97379
  Beta virt. eigenvalues --    1.98285   1.98316   1.98814   1.99507   1.99645
  Beta virt. eigenvalues --    1.99674   2.00295   2.02096   2.02999   2.03920
  Beta virt. eigenvalues --    2.06414   2.07190   2.07250   2.09682   2.10036
  Beta virt. eigenvalues --    2.12840   2.13026   2.14266   2.15233   2.15303
  Beta virt. eigenvalues --    2.16353   2.16676   2.16823   2.19109   2.20034
  Beta virt. eigenvalues --    2.20456   2.21489   2.21645   2.21802   2.23450
  Beta virt. eigenvalues --    2.24466   2.24997   2.26082   2.27178   2.27698
  Beta virt. eigenvalues --    2.28023   2.28305   2.28519   2.28522   2.29132
  Beta virt. eigenvalues --    2.33000   2.35126   2.38845   2.40173   2.40710
  Beta virt. eigenvalues --    2.40953   2.44051   2.44698   2.47088   2.47699
  Beta virt. eigenvalues --    2.51893   2.52097   2.52563   2.57273   2.58854
  Beta virt. eigenvalues --    2.59293   2.59429   2.60838   2.61186   2.62264
  Beta virt. eigenvalues --    2.64484   2.64986   2.66467   2.68631   2.69671
  Beta virt. eigenvalues --    2.69826   2.70464   2.72587   2.75139   2.75841
  Beta virt. eigenvalues --    2.76115   2.76208   2.77641   2.79009   2.80748
  Beta virt. eigenvalues --    2.82206   2.83505   2.86301   2.88521   2.88647
  Beta virt. eigenvalues --    2.93633   2.94761   2.98017   2.98401   2.99933
  Beta virt. eigenvalues --    3.01582   3.06530   3.07313   3.16643   3.20335
  Beta virt. eigenvalues --    3.20388   3.30066   3.40529   3.47506   3.47723
  Beta virt. eigenvalues --    3.52826   3.53623   3.61967   5.66594   5.67030
  Beta virt. eigenvalues --    5.67644   5.68529   5.68663   5.69777   5.71995
  Beta virt. eigenvalues --   45.81876  45.98087  46.03205  63.11660
          Condensed to atoms (all electrons):
               1          2          3          4          5          6
     1  C    5.127903   0.515801  -0.064833  -0.057229  -0.064834   0.515808
     2  C    0.515801   4.637298   0.524500  -0.015178  -0.039016  -0.017940
     3  C   -0.064833   0.524500   5.044118   0.535153  -0.033317  -0.039017
     4  C   -0.057229  -0.015178   0.535153   4.909668   0.535144  -0.015177
     5  C   -0.064834  -0.039016  -0.033317   0.535144   5.044134   0.524501
     6  C    0.515808  -0.017940  -0.039017  -0.015177   0.524501   4.637278
     7  H    0.005959  -0.040599   0.341902  -0.039286   0.003870   0.000782
     8  H    0.001610   0.002733  -0.036626   0.364503  -0.036626   0.002733
     9  H    0.005959   0.000782   0.003870  -0.039285   0.341903  -0.040599
    10  C    0.006419  -0.000033   0.000002   0.000143  -0.005619  -0.049377
    11  C    0.006700   0.002441  -0.000050   0.000035   0.003201  -0.068077
    12  C   -0.000705   0.000002  -0.000000   0.000001   0.000117   0.007696
    13  C    0.000143   0.000000  -0.000001   0.000049   0.002327  -0.003767
    14  C    0.000002  -0.000000   0.000000  -0.000000   0.000003  -0.000020
    15  C    0.000002  -0.000000   0.000000  -0.000001   0.000082   0.000070
    16  H   -0.000028   0.000000   0.000001   0.000100   0.000231   0.000749
    17  C    0.000000   0.000000   0.000000   0.000000  -0.000001  -0.000004
    18  H   -0.000000   0.000000   0.000000   0.000000  -0.000000   0.000003
    19  H   -0.000000   0.000000  -0.000000   0.000000   0.000002  -0.000003
    20  H    0.000000  -0.000000   0.000000  -0.000000  -0.000000  -0.000000
    21  C    0.006419  -0.049381  -0.005619   0.000143   0.000002  -0.000033
    22  C    0.006699  -0.068078   0.003201   0.000035  -0.000050   0.002441
    23  C   -0.000705   0.007695   0.000117   0.000001  -0.000000   0.000002
    24  C    0.000143  -0.003766   0.002327   0.000049  -0.000001   0.000000
    25  C    0.000002  -0.000020   0.000003  -0.000000   0.000000  -0.000000
    26  C    0.000002   0.000070   0.000082  -0.000001   0.000000  -0.000000
    27  H   -0.000028   0.000749   0.000232   0.000100   0.000001   0.000000
    28  C    0.000000  -0.000004  -0.000001   0.000000   0.000000   0.000000
    29  H   -0.000000   0.000003  -0.000000   0.000000   0.000000   0.000000
    30  H   -0.000000  -0.000003   0.000002   0.000000  -0.000000   0.000000
    31  H    0.000000  -0.000000  -0.000000  -0.000000   0.000000  -0.000000
    32  N   -0.037614   0.252649  -0.075548   0.004766   0.000188   0.005961
    33  N    0.001890   0.006156  -0.000163   0.000002   0.000000  -0.000038
    34  N   -0.037616   0.005961   0.000188   0.004766  -0.075550   0.252647
    35  N    0.001890  -0.000038   0.000000   0.000002  -0.000163   0.006155
    36  C   -0.000013   0.000000   0.000000  -0.000000   0.000002  -0.000042
    37  H   -0.000001  -0.000000   0.000000   0.000000  -0.000000   0.000004
    38  H   -0.000001  -0.000000   0.000000   0.000000  -0.000000   0.000004
    39  H   -0.000015   0.000001   0.000000  -0.000000   0.000000  -0.000008
    40  C   -0.000013  -0.000042   0.000002  -0.000000   0.000000   0.000000
    41  H   -0.000001   0.000004  -0.000000   0.000000   0.000000  -0.000000
    42  H   -0.000001   0.000004  -0.000000   0.000000   0.000000  -0.000000
    43  H   -0.000015  -0.000008   0.000000  -0.000000   0.000000   0.000001
    44  Co   0.255860  -0.064191   0.006564   0.001926   0.006564  -0.064191
               7          8          9         10         11         12
     1  C    0.005959   0.001610   0.005959   0.006419   0.006700  -0.000705
     2  C   -0.040599   0.002733   0.000782  -0.000033   0.002441   0.000002
     3  C    0.341902  -0.036626   0.003870   0.000002  -0.000050  -0.000000
     4  C   -0.039286   0.364503  -0.039285   0.000143   0.000035   0.000001
     5  C    0.003870  -0.036626   0.341903  -0.005619   0.003201   0.000117
     6  C    0.000782   0.002733  -0.040599  -0.049377  -0.068077   0.007696
     7  H    0.571920  -0.004261  -0.000088  -0.000000  -0.000000   0.000000
     8  H   -0.004261   0.556880  -0.004261  -0.000003   0.000001  -0.000000
     9  H   -0.000088  -0.004261   0.571917   0.000399  -0.000193  -0.000043
    10  C   -0.000000  -0.000003   0.000399   4.644913  -0.066657   0.512547
    11  C   -0.000000   0.000001  -0.000193  -0.066657   4.809744  -0.054733
    12  C    0.000000  -0.000000  -0.000043   0.512547  -0.054733   4.662856
    13  C   -0.000000   0.000003  -0.000406   0.539353   0.004416  -0.057117
    14  C   -0.000000   0.000000  -0.000000  -0.049100   0.004989   0.534250
    15  C   -0.000000   0.000000   0.000134  -0.005810  -0.000052  -0.037891
    16  H    0.000000  -0.000011   0.006487  -0.033113  -0.000153   0.003723
    17  C    0.000000  -0.000000   0.000001  -0.039269  -0.000059  -0.009260
    18  H    0.000000  -0.000000  -0.000000   0.003940  -0.000209  -0.037645
    19  H    0.000000   0.000000  -0.000009   0.001910   0.000003   0.000937
    20  H   -0.000000  -0.000000   0.000000   0.000901   0.000003   0.002325
    21  C    0.000399  -0.000003  -0.000000  -0.000000  -0.000008   0.000000
    22  C   -0.000193   0.000001  -0.000000  -0.000008  -0.014482  -0.000002
    23  C   -0.000043  -0.000000   0.000000   0.000000  -0.000002  -0.000000
    24  C   -0.000406   0.000003  -0.000000   0.000000   0.000000  -0.000000
    25  C   -0.000000   0.000000  -0.000000  -0.000000   0.000000   0.000000
    26  C    0.000134   0.000000  -0.000000  -0.000000  -0.000000   0.000000
    27  H    0.006487  -0.000011   0.000000   0.000000   0.000000  -0.000000
    28  C    0.000001  -0.000000   0.000000   0.000000  -0.000000  -0.000000
    29  H   -0.000000  -0.000000   0.000000   0.000000   0.000000  -0.000000
    30  H   -0.000009   0.000000   0.000000   0.000000   0.000000   0.000000
    31  H    0.000000  -0.000000  -0.000000   0.000000   0.000000   0.000000
    32  N   -0.003651  -0.000112   0.000008   0.000000   0.000312   0.000000
    33  N    0.000000  -0.000000  -0.000000  -0.000000   0.000031   0.000000
    34  N    0.000008  -0.000112  -0.003651   0.257213   0.351921  -0.040122
    35  N   -0.000000  -0.000000   0.000000  -0.046235   0.304194   0.263699
    36  C   -0.000000   0.000000  -0.000000   0.005603  -0.044158  -0.049060
    37  H    0.000000  -0.000000   0.000000  -0.000140   0.000543  -0.001185
    38  H    0.000000  -0.000000   0.000000  -0.000140   0.000537  -0.001181
    39  H    0.000000   0.000000   0.000000   0.000018   0.000560   0.002627
    40  C   -0.000000   0.000000  -0.000000   0.000000   0.000015   0.000000
    41  H    0.000000  -0.000000   0.000000  -0.000000  -0.000000  -0.000000
    42  H    0.000000  -0.000000   0.000000  -0.000000  -0.000000  -0.000000
    43  H    0.000000   0.000000   0.000000   0.000000  -0.000003  -0.000000
    44  Co  -0.000507   0.000130  -0.000507   0.007326   0.359871   0.005572
              13         14         15         16         17         18
     1  C    0.000143   0.000002   0.000002  -0.000028   0.000000  -0.000000
     2  C    0.000000  -0.000000  -0.000000   0.000000   0.000000   0.000000
     3  C   -0.000001   0.000000   0.000000   0.000001   0.000000   0.000000
     4  C    0.000049  -0.000000  -0.000001   0.000100   0.000000   0.000000
     5  C    0.002327   0.000003   0.000082   0.000231  -0.000001  -0.000000
     6  C   -0.003767  -0.000020   0.000070   0.000749  -0.000004   0.000003
     7  H   -0.000000  -0.000000  -0.000000   0.000000   0.000000   0.000000
     8  H    0.000003   0.000000   0.000000  -0.000011  -0.000000  -0.000000
     9  H   -0.000406  -0.000000   0.000134   0.006487   0.000001  -0.000000
    10  C    0.539353  -0.049100  -0.005810  -0.033113  -0.039269   0.003940
    11  C    0.004416   0.004989  -0.000052  -0.000153  -0.000059  -0.000209
    12  C   -0.057117   0.534250  -0.037891   0.003723  -0.009260  -0.037645
    13  C    5.022518  -0.044914   0.509791   0.355236  -0.036714   0.000283
    14  C   -0.044914   5.032604  -0.036516   0.000431   0.515834   0.362301
    15  C    0.509791  -0.036516   4.895822  -0.035355   0.556509   0.003804
    16  H    0.355236   0.000431  -0.035355   0.509535   0.003636   0.000013
    17  C   -0.036714   0.515834   0.556509   0.003636   4.890005  -0.035040
    18  H    0.000283   0.362301   0.003804   0.000013  -0.035040   0.532141
    19  H   -0.035512   0.003907   0.368843  -0.003903  -0.035953  -0.000142
    20  H    0.004040  -0.036878  -0.036454  -0.000146   0.368883  -0.004110
    21  C    0.000000  -0.000000  -0.000000   0.000000   0.000000   0.000000
    22  C    0.000000   0.000000  -0.000000   0.000000  -0.000000   0.000000
    23  C   -0.000000   0.000000   0.000000  -0.000000  -0.000000  -0.000000
    24  C    0.000000  -0.000000   0.000000   0.000000   0.000000   0.000000
    25  C   -0.000000  -0.000000   0.000000  -0.000000  -0.000000   0.000000
    26  C    0.000000   0.000000  -0.000000  -0.000000  -0.000000   0.000000
    27  H    0.000000  -0.000000  -0.000000   0.000000   0.000000  -0.000000
    28  C    0.000000  -0.000000  -0.000000   0.000000   0.000000   0.000000
    29  H    0.000000   0.000000   0.000000  -0.000000   0.000000  -0.000000
    30  H   -0.000000  -0.000000   0.000000  -0.000000   0.000000   0.000000
    31  H   -0.000000   0.000000   0.000000  -0.000000   0.000000   0.000000
    32  N   -0.000000   0.000000   0.000000   0.000000   0.000000  -0.000000
    33  N    0.000000  -0.000000  -0.000000   0.000000   0.000000  -0.000000
    34  N   -0.077573   0.009473   0.005170  -0.005098  -0.000180  -0.000096
    35  N    0.009585  -0.083106  -0.000196  -0.000094   0.005356  -0.007371
    36  C   -0.000116  -0.002798   0.000009   0.000003  -0.000115   0.004328
    37  H   -0.000010   0.002638  -0.000001  -0.000000  -0.000004   0.000537
    38  H   -0.000010   0.002635  -0.000001  -0.000000  -0.000004   0.000535
    39  H    0.000005   0.000012  -0.000000  -0.000000   0.000001  -0.000034
    40  C    0.000000   0.000000  -0.000000   0.000000   0.000000  -0.000000
    41  H   -0.000000  -0.000000   0.000000  -0.000000   0.000000  -0.000000
    42  H   -0.000000  -0.000000   0.000000  -0.000000   0.000000  -0.000000
    43  H    0.000000   0.000000  -0.000000   0.000000  -0.000000   0.000000
    44  Co  -0.001293  -0.001414   0.000172   0.000043   0.000152   0.000021
              19         20         21         22         23         24
     1  C   -0.000000   0.000000   0.006419   0.006699  -0.000705   0.000143
     2  C    0.000000  -0.000000  -0.049381  -0.068078   0.007695  -0.003766
     3  C   -0.000000   0.000000  -0.005619   0.003201   0.000117   0.002327
     4  C    0.000000  -0.000000   0.000143   0.000035   0.000001   0.000049
     5  C    0.000002  -0.000000   0.000002  -0.000050  -0.000000  -0.000001
     6  C   -0.000003  -0.000000  -0.000033   0.002441   0.000002   0.000000
     7  H    0.000000  -0.000000   0.000399  -0.000193  -0.000043  -0.000406
     8  H    0.000000  -0.000000  -0.000003   0.000001  -0.000000   0.000003
     9  H   -0.000009   0.000000  -0.000000  -0.000000   0.000000  -0.000000
    10  C    0.001910   0.000901  -0.000000  -0.000008   0.000000   0.000000
    11  C    0.000003   0.000003  -0.000008  -0.014482  -0.000002   0.000000
    12  C    0.000937   0.002325   0.000000  -0.000002  -0.000000  -0.000000
    13  C   -0.035512   0.004040   0.000000   0.000000  -0.000000   0.000000
    14  C    0.003907  -0.036878  -0.000000   0.000000   0.000000  -0.000000
    15  C    0.368843  -0.036454  -0.000000  -0.000000   0.000000   0.000000
    16  H   -0.003903  -0.000146   0.000000   0.000000  -0.000000   0.000000
    17  C   -0.035953   0.368883   0.000000  -0.000000  -0.000000   0.000000
    18  H   -0.000142  -0.004110   0.000000   0.000000  -0.000000   0.000000
    19  H    0.530603  -0.004603   0.000000   0.000000   0.000000  -0.000000
    20  H   -0.004603   0.535098   0.000000   0.000000   0.000000  -0.000000
    21  C    0.000000   0.000000   4.644973  -0.066661   0.512544   0.539345
    22  C    0.000000   0.000000  -0.066661   4.809747  -0.054729   0.004415
    23  C    0.000000   0.000000   0.512544  -0.054729   4.662805  -0.057111
    24  C   -0.000000  -0.000000   0.539345   0.004415  -0.057111   5.022476
    25  C   -0.000000   0.000000  -0.049104   0.004990   0.534260  -0.044913
    26  C    0.000000   0.000000  -0.005813  -0.000052  -0.037891   0.509806
    27  H   -0.000000  -0.000000  -0.033115  -0.000153   0.003723   0.355239
    28  C    0.000000   0.000000  -0.039269  -0.000059  -0.009258  -0.036715
    29  H    0.000000   0.000000   0.003940  -0.000209  -0.037645   0.000283
    30  H    0.000000   0.000000   0.001911   0.000003   0.000937  -0.035514
    31  H    0.000000   0.000000   0.000901   0.000003   0.002325   0.004040
    32  N    0.000000   0.000000   0.257219   0.351915  -0.040125  -0.077565
    33  N   -0.000000  -0.000000  -0.046234   0.304197   0.263696   0.009584
    34  N   -0.000093   0.000003   0.000000   0.000312   0.000000  -0.000000
    35  N    0.000004  -0.000101  -0.000000   0.000031   0.000000   0.000000
    36  C   -0.000000  -0.000002   0.000000   0.000015   0.000000   0.000000
    37  H   -0.000000  -0.000000  -0.000000  -0.000000  -0.000000  -0.000000
    38  H   -0.000000  -0.000000  -0.000000  -0.000000  -0.000000  -0.000000
    39  H   -0.000000  -0.000000   0.000000  -0.000003  -0.000000   0.000000
    40  C    0.000000  -0.000000   0.005603  -0.044158  -0.049060  -0.000116
    41  H   -0.000000   0.000000  -0.000141   0.000536  -0.001181  -0.000010
    42  H   -0.000000   0.000000  -0.000140   0.000543  -0.001186  -0.000010
    43  H   -0.000000   0.000000   0.000018   0.000560   0.002627   0.000005
    44  Co   0.000015  -0.000011   0.007326   0.359871   0.005572  -0.001293
              25         26         27         28         29         30
     1  C    0.000002   0.000002  -0.000028   0.000000  -0.000000  -0.000000
     2  C   -0.000020   0.000070   0.000749  -0.000004   0.000003  -0.000003
     3  C    0.000003   0.000082   0.000232  -0.000001  -0.000000   0.000002
     4  C   -0.000000  -0.000001   0.000100   0.000000   0.000000   0.000000
     5  C    0.000000   0.000000   0.000001   0.000000   0.000000  -0.000000
     6  C   -0.000000  -0.000000   0.000000   0.000000   0.000000   0.000000
     7  H   -0.000000   0.000134   0.006487   0.000001  -0.000000  -0.000009
     8  H    0.000000   0.000000  -0.000011  -0.000000  -0.000000   0.000000
     9  H   -0.000000  -0.000000   0.000000   0.000000   0.000000   0.000000
    10  C   -0.000000  -0.000000   0.000000   0.000000   0.000000   0.000000
    11  C    0.000000  -0.000000   0.000000  -0.000000   0.000000   0.000000
    12  C    0.000000   0.000000  -0.000000  -0.000000  -0.000000   0.000000
    13  C   -0.000000   0.000000   0.000000   0.000000   0.000000  -0.000000
    14  C   -0.000000   0.000000  -0.000000  -0.000000   0.000000  -0.000000
    15  C    0.000000  -0.000000  -0.000000  -0.000000   0.000000   0.000000
    16  H   -0.000000  -0.000000   0.000000   0.000000  -0.000000  -0.000000
    17  C   -0.000000  -0.000000   0.000000   0.000000   0.000000   0.000000
    18  H    0.000000   0.000000  -0.000000   0.000000  -0.000000   0.000000
    19  H   -0.000000   0.000000  -0.000000   0.000000   0.000000   0.000000
    20  H    0.000000   0.000000  -0.000000   0.000000   0.000000   0.000000
    21  C   -0.049104  -0.005813  -0.033115  -0.039269   0.003940   0.001911
    22  C    0.004990  -0.000052  -0.000153  -0.000059  -0.000209   0.000003
    23  C    0.534260  -0.037891   0.003723  -0.009258  -0.037645   0.000937
    24  C   -0.044913   0.509806   0.355239  -0.036715   0.000283  -0.035514
    25  C    5.032642  -0.036515   0.000431   0.515820   0.362299   0.003908
    26  C   -0.036515   4.895811  -0.035355   0.556510   0.003804   0.368840
    27  H    0.000431  -0.035355   0.509537   0.003636   0.000013  -0.003903
    28  C    0.515820   0.556510   0.003636   4.890015  -0.035039  -0.035954
    29  H    0.362299   0.003804   0.000013  -0.035039   0.532141  -0.000142
    30  H    0.003908   0.368840  -0.003903  -0.035954  -0.000142   0.530611
    31  H   -0.036876  -0.036453  -0.000146   0.368885  -0.004110  -0.004603
    32  N    0.009474   0.005170  -0.005098  -0.000180  -0.000096  -0.000093
    33  N   -0.083113  -0.000196  -0.000094   0.005356  -0.007371   0.000004
    34  N    0.000000   0.000000   0.000000   0.000000  -0.000000   0.000000
    35  N   -0.000000  -0.000000   0.000000   0.000000  -0.000000  -0.000000
    36  C    0.000000  -0.000000   0.000000   0.000000  -0.000000   0.000000
    37  H   -0.000000   0.000000  -0.000000   0.000000  -0.000000  -0.000000
    38  H   -0.000000   0.000000  -0.000000   0.000000  -0.000000  -0.000000
    39  H    0.000000  -0.000000   0.000000  -0.000000   0.000000  -0.000000
    40  C   -0.002798   0.000009   0.000003  -0.000115   0.004328  -0.000000
    41  H    0.002635  -0.000001  -0.000000  -0.000004   0.000535  -0.000000
    42  H    0.002638  -0.000001  -0.000000  -0.000004   0.000537  -0.000000
    43  H    0.000012  -0.000000  -0.000000   0.000001  -0.000034  -0.000000
    44  Co  -0.001414   0.000172   0.000043   0.000152   0.000021   0.000015
              31         32         33         34         35         36
     1  C    0.000000  -0.037614   0.001890  -0.037616   0.001890  -0.000013
     2  C   -0.000000   0.252649   0.006156   0.005961  -0.000038   0.000000
     3  C   -0.000000  -0.075548  -0.000163   0.000188   0.000000   0.000000
     4  C   -0.000000   0.004766   0.000002   0.004766   0.000002  -0.000000
     5  C    0.000000   0.000188   0.000000  -0.075550  -0.000163   0.000002
     6  C   -0.000000   0.005961  -0.000038   0.252647   0.006155  -0.000042
     7  H    0.000000  -0.003651   0.000000   0.000008  -0.000000  -0.000000
     8  H   -0.000000  -0.000112  -0.000000  -0.000112  -0.000000   0.000000
     9  H   -0.000000   0.000008  -0.000000  -0.003651   0.000000  -0.000000
    10  C    0.000000   0.000000  -0.000000   0.257213  -0.046235   0.005603
    11  C    0.000000   0.000312   0.000031   0.351921   0.304194  -0.044158
    12  C    0.000000   0.000000   0.000000  -0.040122   0.263699  -0.049060
    13  C   -0.000000  -0.000000   0.000000  -0.077573   0.009585  -0.000116
    14  C    0.000000   0.000000  -0.000000   0.009473  -0.083106  -0.002798
    15  C    0.000000   0.000000  -0.000000   0.005170  -0.000196   0.000009
    16  H   -0.000000   0.000000   0.000000  -0.005098  -0.000094   0.000003
    17  C    0.000000   0.000000   0.000000  -0.000180   0.005356  -0.000115
    18  H    0.000000  -0.000000  -0.000000  -0.000096  -0.007371   0.004328
    19  H    0.000000   0.000000  -0.000000  -0.000093   0.000004  -0.000000
    20  H    0.000000   0.000000  -0.000000   0.000003  -0.000101  -0.000002
    21  C    0.000901   0.257219  -0.046234   0.000000  -0.000000   0.000000
    22  C    0.000003   0.351915   0.304197   0.000312   0.000031   0.000015
    23  C    0.002325  -0.040125   0.263696   0.000000   0.000000   0.000000
    24  C    0.004040  -0.077565   0.009584  -0.000000   0.000000   0.000000
    25  C   -0.036876   0.009474  -0.083113   0.000000  -0.000000   0.000000
    26  C   -0.036453   0.005170  -0.000196   0.000000  -0.000000  -0.000000
    27  H   -0.000146  -0.005098  -0.000094   0.000000   0.000000   0.000000
    28  C    0.368885  -0.000180   0.005356   0.000000   0.000000   0.000000
    29  H   -0.004110  -0.000096  -0.007371  -0.000000  -0.000000  -0.000000
    30  H   -0.004603  -0.000093   0.000004   0.000000  -0.000000   0.000000
    31  H    0.535090   0.000003  -0.000101   0.000000  -0.000000  -0.000000
    32  N    0.000003   7.198155  -0.060889  -0.000079   0.000000   0.000000
    33  N   -0.000101  -0.060889   7.060444   0.000000  -0.000000  -0.000000
    34  N    0.000000  -0.000079   0.000000   7.198189  -0.060891   0.004592
    35  N   -0.000000   0.000000  -0.000000  -0.060891   7.060426   0.300705
    36  C   -0.000000   0.000000  -0.000000   0.004592   0.300705   5.060955
    37  H    0.000000   0.000000   0.000000  -0.000064  -0.042079   0.377326
    38  H    0.000000   0.000000   0.000000  -0.000064  -0.042080   0.377332
    39  H    0.000000  -0.000000   0.000001   0.000153  -0.031946   0.376200
    40  C   -0.000002   0.004592   0.300704   0.000000  -0.000000   0.000000
    41  H   -0.000000  -0.000064  -0.042080   0.000000   0.000000  -0.000000
    42  H   -0.000000  -0.000064  -0.042079   0.000000   0.000000  -0.000000
    43  H   -0.000000   0.000153  -0.031946  -0.000000   0.000001  -0.000001
    44  Co  -0.000011  -0.073524  -0.054885  -0.073526  -0.054885  -0.006586
              37         38         39         40         41         42
     1  C   -0.000001  -0.000001  -0.000015  -0.000013  -0.000001  -0.000001
     2  C   -0.000000  -0.000000   0.000001  -0.000042   0.000004   0.000004
     3  C    0.000000   0.000000   0.000000   0.000002  -0.000000  -0.000000
     4  C    0.000000   0.000000  -0.000000  -0.000000   0.000000   0.000000
     5  C   -0.000000  -0.000000   0.000000   0.000000   0.000000   0.000000
     6  C    0.000004   0.000004  -0.000008   0.000000  -0.000000  -0.000000
     7  H    0.000000   0.000000   0.000000  -0.000000   0.000000   0.000000
     8  H   -0.000000  -0.000000   0.000000   0.000000  -0.000000  -0.000000
     9  H    0.000000   0.000000   0.000000  -0.000000   0.000000   0.000000
    10  C   -0.000140  -0.000140   0.000018   0.000000  -0.000000  -0.000000
    11  C    0.000543   0.000537   0.000560   0.000015  -0.000000  -0.000000
    12  C   -0.001185  -0.001181   0.002627   0.000000  -0.000000  -0.000000
    13  C   -0.000010  -0.000010   0.000005   0.000000  -0.000000  -0.000000
    14  C    0.002638   0.002635   0.000012   0.000000  -0.000000  -0.000000
    15  C   -0.000001  -0.000001  -0.000000  -0.000000   0.000000   0.000000
    16  H   -0.000000  -0.000000  -0.000000   0.000000  -0.000000  -0.000000
    17  C   -0.000004  -0.000004   0.000001   0.000000   0.000000   0.000000
    18  H    0.000537   0.000535  -0.000034  -0.000000  -0.000000  -0.000000
    19  H   -0.000000  -0.000000  -0.000000   0.000000  -0.000000  -0.000000
    20  H   -0.000000  -0.000000  -0.000000  -0.000000   0.000000   0.000000
    21  C   -0.000000  -0.000000   0.000000   0.005603  -0.000141  -0.000140
    22  C   -0.000000  -0.000000  -0.000003  -0.044158   0.000536   0.000543
    23  C   -0.000000  -0.000000  -0.000000  -0.049060  -0.001181  -0.001186
    24  C   -0.000000  -0.000000   0.000000  -0.000116  -0.000010  -0.000010
    25  C   -0.000000  -0.000000   0.000000  -0.002798   0.002635   0.002638
    26  C    0.000000   0.000000  -0.000000   0.000009  -0.000001  -0.000001
    27  H   -0.000000  -0.000000   0.000000   0.000003  -0.000000  -0.000000
    28  C    0.000000   0.000000  -0.000000  -0.000115  -0.000004  -0.000004
    29  H   -0.000000  -0.000000   0.000000   0.004328   0.000535   0.000537
    30  H   -0.000000  -0.000000  -0.000000  -0.000000  -0.000000  -0.000000
    31  H    0.000000   0.000000   0.000000  -0.000002  -0.000000  -0.000000
    32  N    0.000000   0.000000  -0.000000   0.004592  -0.000064  -0.000064
    33  N    0.000000   0.000000   0.000001   0.300704  -0.042080  -0.042079
    34  N   -0.000064  -0.000064   0.000153   0.000000   0.000000   0.000000
    35  N   -0.042079  -0.042080  -0.031946  -0.000000   0.000000   0.000000
    36  C    0.377326   0.377332   0.376200   0.000000  -0.000000  -0.000000
    37  H    0.525252  -0.040043  -0.025277  -0.000000   0.000000  -0.000000
    38  H   -0.040043   0.525248  -0.025284  -0.000000  -0.000000   0.000000
    39  H   -0.025277  -0.025284   0.469708  -0.000001   0.000000   0.000000
    40  C   -0.000000  -0.000000  -0.000001   5.060954   0.377332   0.377326
    41  H    0.000000  -0.000000   0.000000   0.377332   0.525247  -0.040043
    42  H   -0.000000   0.000000   0.000000   0.377326  -0.040043   0.525251
    43  H    0.000000   0.000000  -0.000024   0.376200  -0.025284  -0.025276
    44  Co   0.000570   0.000573   0.008211  -0.006586   0.000573   0.000570
              43         44
     1  C   -0.000015   0.255860
     2  C   -0.000008  -0.064191
     3  C    0.000000   0.006564
     4  C   -0.000000   0.001926
     5  C    0.000000   0.006564
     6  C    0.000001  -0.064191
     7  H    0.000000  -0.000507
     8  H    0.000000   0.000130
     9  H    0.000000  -0.000507
    10  C    0.000000   0.007326
    11  C   -0.000003   0.359871
    12  C   -0.000000   0.005572
    13  C    0.000000  -0.001293
    14  C    0.000000  -0.001414
    15  C   -0.000000   0.000172
    16  H    0.000000   0.000043
    17  C   -0.000000   0.000152
    18  H    0.000000   0.000021
    19  H   -0.000000   0.000015
    20  H    0.000000  -0.000011
    21  C    0.000018   0.007326
    22  C    0.000560   0.359871
    23  C    0.002627   0.005572
    24  C    0.000005  -0.001293
    25  C    0.000012  -0.001414
    26  C   -0.000000   0.000172
    27  H   -0.000000   0.000043
    28  C    0.000001   0.000152
    29  H   -0.000034   0.000021
    30  H   -0.000000   0.000015
    31  H   -0.000000  -0.000011
    32  N    0.000153  -0.073524
    33  N   -0.031946  -0.054885
    34  N   -0.000000  -0.073526
    35  N    0.000001  -0.054885
    36  C   -0.000001  -0.006586
    37  H    0.000000   0.000570
    38  H    0.000000   0.000573
    39  H   -0.000024   0.008211
    40  C    0.376200  -0.006586
    41  H   -0.025284   0.000573
    42  H   -0.025276   0.000570
    43  H    0.469710   0.008211
    44  Co   0.008211  16.471512
          Atomic-Atomic Spin Densities.
               1          2          3          4          5          6
     1  C    0.000004  -0.000000   0.000000  -0.000000   0.000000  -0.000000
     2  C   -0.000000  -0.000000   0.000000   0.000000   0.000000  -0.000000
     3  C    0.000000   0.000000   0.000000  -0.000000   0.000000   0.000000
     4  C   -0.000000   0.000000  -0.000000   0.000000  -0.000000   0.000000
     5  C    0.000000   0.000000   0.000000  -0.000000   0.000000   0.000000
     6  C   -0.000000  -0.000000   0.000000   0.000000   0.000000  -0.000000
     7  H    0.000000  -0.000000  -0.000000  -0.000000   0.000000  -0.000000
     8  H   -0.000000  -0.000000   0.000000   0.000000   0.000000  -0.000000
     9  H    0.000000  -0.000000   0.000000  -0.000000  -0.000000  -0.000000
    10  C    0.000000  -0.000000  -0.000000   0.000000   0.000000   0.000000
    11  C   -0.000000   0.000000  -0.000000   0.000000  -0.000000  -0.000000
    12  C   -0.000000  -0.000000   0.000000   0.000000   0.000000   0.000000
    13  C    0.000000   0.000000  -0.000000   0.000000   0.000000   0.000000
    14  C    0.000000   0.000000  -0.000000   0.000000   0.000000   0.000000
    15  C    0.000000   0.000000  -0.000000   0.000000  -0.000000  -0.000000
    16  H   -0.000000  -0.000000   0.000000  -0.000000   0.000000  -0.000000
    17  C   -0.000000  -0.000000   0.000000   0.000000   0.000000   0.000000
    18  H   -0.000000   0.000000   0.000000  -0.000000  -0.000000   0.000000
    19  H   -0.000000  -0.000000   0.000000  -0.000000   0.000000   0.000000
    20  H    0.000000  -0.000000  -0.000000   0.000000   0.000000   0.000000
    21  C    0.000000   0.000000   0.000000   0.000000  -0.000000  -0.000000
    22  C   -0.000000  -0.000000  -0.000000   0.000000  -0.000000   0.000000
    23  C   -0.000000   0.000000   0.000000   0.000000   0.000000  -0.000000
    24  C    0.000000   0.000000   0.000000   0.000000  -0.000000   0.000000
    25  C    0.000000   0.000000   0.000000   0.000000  -0.000000   0.000000
    26  C    0.000000  -0.000000  -0.000000   0.000000  -0.000000   0.000000
    27  H   -0.000000  -0.000000   0.000000  -0.000000   0.000000  -0.000000
    28  C   -0.000000   0.000000   0.000000   0.000000   0.000000  -0.000000
    29  H   -0.000000   0.000000  -0.000000  -0.000000   0.000000   0.000000
    30  H   -0.000000   0.000000   0.000000  -0.000000   0.000000  -0.000000
    31  H    0.000000   0.000000   0.000000   0.000000  -0.000000  -0.000000
    32  N    0.000000   0.000000   0.000000  -0.000000   0.000000  -0.000000
    33  N    0.000000  -0.000000   0.000000   0.000000  -0.000000   0.000000
    34  N    0.000000  -0.000000   0.000000  -0.000000   0.000000   0.000000
    35  N    0.000000   0.000000  -0.000000   0.000000   0.000000  -0.000000
    36  C    0.000000  -0.000000  -0.000000   0.000000  -0.000000  -0.000000
    37  H   -0.000000   0.000000   0.000000  -0.000000  -0.000000  -0.000000
    38  H    0.000000   0.000000   0.000000  -0.000000   0.000000   0.000000
    39  H   -0.000000  -0.000000   0.000000  -0.000000   0.000000   0.000000
    40  C    0.000000  -0.000000  -0.000000   0.000000  -0.000000  -0.000000
    41  H    0.000000   0.000000   0.000000  -0.000000   0.000000   0.000000
    42  H   -0.000000  -0.000000  -0.000000  -0.000000   0.000000   0.000000
    43  H   -0.000000   0.000000   0.000000  -0.000000   0.000000  -0.000000
    44  Co  -0.000001   0.000000  -0.000000  -0.000000  -0.000000   0.000000
               7          8          9         10         11         12
     1  C    0.000000  -0.000000   0.000000   0.000000  -0.000000  -0.000000
     2  C   -0.000000  -0.000000  -0.000000  -0.000000   0.000000  -0.000000
     3  C   -0.000000   0.000000   0.000000  -0.000000  -0.000000   0.000000
     4  C   -0.000000   0.000000  -0.000000   0.000000   0.000000   0.000000
     5  C    0.000000   0.000000  -0.000000   0.000000  -0.000000   0.000000
     6  C   -0.000000  -0.000000  -0.000000   0.000000  -0.000000   0.000000
     7  H    0.000000  -0.000000   0.000000  -0.000000   0.000000   0.000000
     8  H   -0.000000  -0.000000  -0.000000  -0.000000   0.000000  -0.000000
     9  H    0.000000  -0.000000   0.000000  -0.000000   0.000000  -0.000000
    10  C   -0.000000  -0.000000  -0.000000  -0.000000   0.000000  -0.000000
    11  C    0.000000   0.000000   0.000000   0.000000   0.000001   0.000000
    12  C    0.000000  -0.000000  -0.000000  -0.000000   0.000000  -0.000000
    13  C   -0.000000   0.000000  -0.000000   0.000000   0.000000   0.000000
    14  C   -0.000000   0.000000  -0.000000  -0.000000  -0.000000   0.000000
    15  C    0.000000   0.000000  -0.000000  -0.000000  -0.000000   0.000000
    16  H   -0.000000  -0.000000  -0.000000  -0.000000   0.000000  -0.000000
    17  C   -0.000000  -0.000000  -0.000000   0.000000   0.000000  -0.000000
    18  H    0.000000   0.000000   0.000000   0.000000   0.000000  -0.000000
    19  H   -0.000000  -0.000000  -0.000000   0.000000   0.000000  -0.000000
    20  H   -0.000000  -0.000000  -0.000000  -0.000000  -0.000000   0.000000
    21  C   -0.000000  -0.000000  -0.000000  -0.000000   0.000000  -0.000000
    22  C    0.000000   0.000000   0.000000   0.000000   0.000000   0.000000
    23  C   -0.000000  -0.000000   0.000000  -0.000000   0.000000   0.000000
    24  C   -0.000000   0.000000  -0.000000   0.000000  -0.000000  -0.000000
    25  C   -0.000000   0.000000  -0.000000   0.000000  -0.000000  -0.000000
    26  C   -0.000000   0.000000   0.000000   0.000000   0.000000  -0.000000
    27  H   -0.000000  -0.000000  -0.000000  -0.000000   0.000000  -0.000000
    28  C   -0.000000  -0.000000  -0.000000  -0.000000   0.000000   0.000000
    29  H    0.000000   0.000000   0.000000  -0.000000   0.000000   0.000000
    30  H   -0.000000  -0.000000  -0.000000  -0.000000  -0.000000   0.000000
    31  H   -0.000000  -0.000000  -0.000000   0.000000  -0.000000  -0.000000
    32  N    0.000000  -0.000000  -0.000000  -0.000000   0.000000   0.000000
    33  N   -0.000000  -0.000000  -0.000000   0.000000  -0.000000  -0.000000
    34  N   -0.000000  -0.000000   0.000000  -0.000000  -0.000000   0.000000
    35  N   -0.000000  -0.000000  -0.000000   0.000000  -0.000000  -0.000000
    36  C   -0.000000   0.000000   0.000000   0.000000  -0.000000   0.000000
    37  H    0.000000   0.000000   0.000000   0.000000   0.000000   0.000000
    38  H   -0.000000  -0.000000  -0.000000   0.000000   0.000000  -0.000000
    39  H    0.000000  -0.000000   0.000000  -0.000000   0.000000   0.000000
    40  C    0.000000   0.000000  -0.000000   0.000000  -0.000000  -0.000000
    41  H   -0.000000  -0.000000  -0.000000  -0.000000  -0.000000  -0.000000
    42  H    0.000000   0.000000   0.000000  -0.000000   0.000000   0.000000
    43  H    0.000000  -0.000000   0.000000  -0.000000   0.000000   0.000000
    44  Co   0.000000   0.000000   0.000000   0.000000   0.000001   0.000000
              13         14         15         16         17         18
     1  C    0.000000   0.000000   0.000000  -0.000000  -0.000000  -0.000000
     2  C    0.000000   0.000000   0.000000  -0.000000  -0.000000   0.000000
     3  C   -0.000000  -0.000000  -0.000000   0.000000   0.000000   0.000000
     4  C    0.000000   0.000000   0.000000  -0.000000   0.000000  -0.000000
     5  C    0.000000   0.000000  -0.000000   0.000000   0.000000  -0.000000
     6  C    0.000000   0.000000  -0.000000  -0.000000   0.000000   0.000000
     7  H   -0.000000  -0.000000   0.000000  -0.000000  -0.000000   0.000000
     8  H    0.000000   0.000000   0.000000  -0.000000  -0.000000   0.000000
     9  H   -0.000000  -0.000000  -0.000000  -0.000000  -0.000000   0.000000
    10  C    0.000000  -0.000000  -0.000000  -0.000000   0.000000   0.000000
    11  C    0.000000  -0.000000  -0.000000   0.000000   0.000000   0.000000
    12  C    0.000000   0.000000   0.000000  -0.000000  -0.000000  -0.000000
    13  C    0.000000   0.000000  -0.000000  -0.000000  -0.000000  -0.000000
    14  C    0.000000   0.000000  -0.000000  -0.000000  -0.000000  -0.000000
[...]
    41 H(1)   Bbb     0.0000     0.000     0.000     0.000 -0.2716  0.7816 -0.5616
              Bcc     0.0000     0.000     0.000     0.000  0.8666 -0.0551 -0.4959
 
              Baa    -0.0000    -0.000    -0.000    -0.000  0.7563  0.4621 -0.4632
    42 H(1)   Bbb     0.0000     0.000     0.000     0.000 -0.6188  0.7351 -0.2771
              Bcc     0.0000     0.000     0.000     0.000  0.2124  0.4962  0.8418
 
              Baa    -0.0000    -0.000    -0.000    -0.000  0.4701  0.8187 -0.3297
    43 H(1)   Bbb     0.0000     0.000     0.000     0.000 -0.0455  0.3956  0.9173
              Bcc     0.0000     0.000     0.000     0.000  0.8814 -0.4163  0.2232
 
              Baa    -0.0001    -0.011    -0.004    -0.004 -0.0000  0.8372  0.5469
    44 Co(59) Bbb    -0.0000    -0.004    -0.001    -0.001 -0.0000 -0.5469  0.8372
              Bcc     0.0001     0.015     0.005     0.005  1.0000  0.0000  0.0000
 

 ---------------------------------------------------------------------------------

   1 Symmetry operations used in ECPInt.
 ECPInt:  NShTT=   11781 NPrTT=   71406 LenC2=    9532 LenP2D=   32096.
 LDataN:  DoStor=T MaxTD1= 7 Len=  274
 Calling FoFJK, ICntrl=      2127 FMM=F ISym2X=0 I1Cent= 0 IOpClX= 1 NMat=1 NMatS=1 NMatT=0.
 -------------------------------------------------------------------
 Center     Atomic                   Forces (Hartrees/Bohr)
 Number     Number              X              Y              Z
 -------------------------------------------------------------------
      1        6          -0.000012364   -0.076344059    0.000003688
      2        6           0.085907344    0.046607927   -0.000002202
      3        6          -0.001485612    0.005848569    0.000001499
      4        6           0.000012826    0.005656789   -0.000000623
      5        6           0.001465183    0.005853782    0.000001154
      6        6          -0.085883396    0.046599164   -0.000003266
      7        1           0.000792037    0.005006281    0.000000025
      8        1          -0.000000632    0.002554198   -0.000000301
      9        1          -0.000787092    0.005008672   -0.000000060
     10        6          -0.013074576   -0.008288117   -0.000000419
     11        6           0.004559903    0.005176886   -0.000018066
     12        6           0.014196986    0.005143530   -0.000001854
     13        6           0.012391258    0.006201708   -0.000001218
     14        6           0.005092740    0.008945057   -0.000001247
     15        6          -0.011666681    0.008499549    0.000001547
     16        1           0.000962219   -0.001047215   -0.000000344
     17        6          -0.002820355   -0.015696521    0.000000378
     18        1           0.001143161   -0.000230717    0.000000171
     19        1           0.000354613   -0.000474255   -0.000000266
     20        1           0.002364752   -0.000182185   -0.000000043
     21        6           0.013028328   -0.008244159   -0.000001846
     22        6          -0.004559705    0.005176734   -0.000021039
     23        6          -0.014140931    0.005151612   -0.000001411
     24        6          -0.012345188    0.006156986   -0.000000684
     25        6          -0.005151279    0.008946523   -0.000001089
     26        6           0.011636584    0.008512629    0.000000690
     27        1          -0.000961961   -0.001037925   -0.000000180
     28        6           0.002852413   -0.015711874    0.000000210
     29        1          -0.001138245   -0.000225379   -0.000000091
     30        1          -0.000348084   -0.000481968   -0.000000178
     31        1          -0.002375320   -0.000183527    0.000000119
     32        7          -0.034182453   -0.074079787    0.000010119
     33        7           0.029559119    0.029207789    0.000013685
     34        7           0.034179427   -0.074061135    0.000006202
     35        7          -0.029565344    0.029213189    0.000013508
     36        6          -0.000130481   -0.016103054   -0.000002966
     37        1           0.000814424    0.001452389    0.001269649
     38        1           0.000813725    0.001455570   -0.001270478
     39        1           0.001165464    0.003605694    0.000001690
     40        6           0.000135374   -0.016099551   -0.000002776
     41        1          -0.000814436    0.001455291   -0.001269534
     42        1          -0.000815474    0.001451890    0.001268431
     43        1          -0.001166780    0.003605656    0.000002092
     44       27          -0.000001490    0.045997366    0.000007325
 -------------------------------------------------------------------
 Cartesian Forces:  Max     0.085907344 RMS     0.018889957

 GradGradGradGradGradGradGradGradGradGradGradGradGradGradGradGradGradGrad
 Berny optimization.
 Search for a local minimum.
 Step number   1 out of a maximum of    2
 All quantities printed in internal units (Hartrees-Bohrs-Radians)
 Second derivative matrix not updated -- first step.
 ITU=  0
     Eigenvalues ---    0.00056   0.00060   0.00200   0.00248   0.00251
     Eigenvalues ---    0.00392   0.00454   0.00619   0.00674   0.00695
     Eigenvalues ---    0.00710   0.00839   0.00846   0.01337   0.01590
     Eigenvalues ---    0.01825   0.02046   0.02065   0.02544   0.02553
     Eigenvalues ---    0.03103   0.03189   0.04122   0.04223   0.04478
     Eigenvalues ---    0.04534   0.04708   0.05401   0.05553   0.06324
     Eigenvalues ---    0.06349   0.06897   0.06934   0.07061   0.07072
     Eigenvalues ---    0.07076   0.07251   0.07690   0.07749   0.09622
     Eigenvalues ---    0.10150   0.10342   0.10427   0.11688   0.11937
     Eigenvalues ---    0.12001   0.12390   0.12407   0.12851   0.13367
     Eigenvalues ---    0.13381   0.13460   0.13688   0.14835   0.15558
     Eigenvalues ---    0.15890   0.15902   0.19719   0.20263   0.20633
     Eigenvalues ---    0.21155   0.22065   0.24236   0.25470   0.28767
     Eigenvalues ---    0.29625   0.30421   0.30676   0.31014   0.31839
     Eigenvalues ---    0.32297   0.34976   0.36984   0.37045   0.38367
     Eigenvalues ---    0.38524   0.41425   0.42139   0.45114   0.48094
     Eigenvalues ---    0.48544   0.49011   0.49340   0.51391   0.53113
     Eigenvalues ---    0.53694   0.55829   0.57607   0.63955   0.69303
     Eigenvalues ---    0.71394   0.73069   0.74243   0.74800   0.87287
     Eigenvalues ---    0.90305   0.91306   0.91510   0.93451   0.94452
     Eigenvalues ---    0.95658   0.97206   1.00562   1.04390   1.12326
     Eigenvalues ---    1.15987   1.16390   1.18774   1.20705   1.24992
     Eigenvalues ---    1.30935   1.37739   1.38024   1.45622   1.48022
     Eigenvalues ---    1.50385   1.51862   1.53341   1.62155   1.65251
     Eigenvalues ---    1.66714   1.67518   1.78831   1.80018   1.91230
     Eigenvalues ---    1.93194
 Quadratic step=5.959D-01 exceeds max=3.000D-01 adjusted using Lamda=-4.207D-02.
 Angle between NR and scaled steps=  38.84 degrees.
 Angle between quadratic step and forces=  45.09 degrees.
 Linear search not attempted -- first point.
 B after Tr=    -0.000000   -0.001841   -0.000001
         Rot=    1.000000   -0.000000   -0.000000   -0.000000 Ang=  -0.00 deg.
 Variable       Old X    -DE/DX   Delta X   Delta X   Delta X     New X
                                 (Linear)    (Quad)   (Total)
    X1        0.00001  -0.00001   0.00000  -0.00001  -0.00001   0.00000
    Y1        1.46722  -0.07634   0.00000  -0.14151  -0.14335   1.32387
    Z1        0.00011   0.00000   0.00000   0.00000   0.00000   0.00011
    X2       -2.42921   0.08591   0.00000   0.10602   0.10602  -2.32319
    Y2        2.55724   0.04661   0.00000  -0.01158  -0.01342   2.54382
    Z2        0.00008  -0.00000   0.00000   0.00000   0.00000   0.00008
    X3       -2.36685  -0.00149   0.00000   0.03881   0.03881  -2.32804
    Y3        5.18715   0.00585   0.00000   0.01403   0.01219   5.19934
    Z3       -0.00001   0.00000   0.00000   0.00001   0.00001   0.00000
    X4       -0.00001   0.00001   0.00000   0.00001   0.00001  -0.00000
    Y4        6.39119   0.00566   0.00000   0.05504   0.05320   6.44439
    Z4        0.00002  -0.00000   0.00000  -0.00000  -0.00000   0.00002
    X5        2.36687   0.00147   0.00000  -0.03882  -0.03882   2.32805
    Y5        5.18715   0.00585   0.00000   0.01403   0.01219   5.19934
    Z5        0.00009   0.00000   0.00000   0.00000   0.00000   0.00009
    X6        2.42919  -0.08588   0.00000  -0.10601  -0.10601   2.32318
    Y6        2.55725   0.04660   0.00000  -0.01158  -0.01342   2.54383
    Z6        0.00015  -0.00000   0.00000  -0.00000  -0.00000   0.00014
    X7       -4.08806   0.00079   0.00000   0.03076   0.03076  -4.05731
    Y7        6.29703   0.00501   0.00000   0.01603   0.01419   6.31122
    Z7       -0.00009   0.00000   0.00000   0.00001   0.00001  -0.00007
    X8        0.00000  -0.00000   0.00000   0.00000   0.00000   0.00000
    Y8        8.43912   0.00255   0.00000   0.05574   0.05390   8.49302
    Z8       -0.00002  -0.00000   0.00000  -0.00001  -0.00000  -0.00002
    X9        4.08806  -0.00079   0.00000  -0.03075  -0.03075   4.05731
    Y9        6.29703   0.00501   0.00000   0.01604   0.01420   6.31122
    Z9        0.00009  -0.00000   0.00000   0.00000   0.00001   0.00010
   X10        6.95959  -0.01307   0.00000  -0.03351  -0.03351   6.92608
   Y10        1.10574  -0.00829   0.00000  -0.01834  -0.02018   1.08556
   Z10       -0.00004  -0.00000   0.00000   0.00000   0.00000  -0.00004
   X11        3.60027   0.00456   0.00000  -0.03447  -0.03447   3.56581
   Y11       -1.70261   0.00518   0.00000  -0.00334  -0.00518  -1.70779
   Z11        0.00024  -0.00002   0.00000  -0.00004  -0.00005   0.00019
   X12        7.88332   0.01420   0.00000  -0.00508  -0.00508   7.87824
   Y12       -1.40208   0.00514   0.00000   0.00753   0.00569  -1.39639
   Z12       -0.00018  -0.00000   0.00000   0.00001   0.00000  -0.00017
   X13        8.57563   0.01239   0.00000  -0.01720  -0.01720   8.55842
   Y13        3.14748   0.00620   0.00000  -0.00254  -0.00438   3.14310
   Z13       -0.00010  -0.00000   0.00000  -0.00000  -0.00000  -0.00011
   X14       10.45576   0.00509   0.00000  -0.00166  -0.00166  10.45410
   Y14       -1.89351   0.00895   0.00000   0.00743   0.00559  -1.88792
   Z14       -0.00037  -0.00000   0.00000  -0.00000  -0.00000  -0.00037
   X15       11.18558  -0.01167   0.00000  -0.02810  -0.02810  11.15749
   Y15        2.65128   0.00850   0.00000   0.00005  -0.00179   2.64949
   Z15       -0.00032   0.00000   0.00000   0.00000   0.00000  -0.00032
   X16        7.87266   0.00096   0.00000  -0.00525  -0.00525   7.86740
   Y16        5.07286  -0.00105   0.00000  -0.00200  -0.00384   5.06902
   Z16        0.00002  -0.00000   0.00000  -0.00001  -0.00001   0.00001
   X17       12.09906  -0.00282   0.00000  -0.01034  -0.01034  12.08872
   Y17        0.19899  -0.01570   0.00000  -0.01149  -0.01333   0.18565
   Z17       -0.00046   0.00000   0.00000   0.00000   0.00000  -0.00045
   X18       11.16628   0.00114   0.00000   0.00576   0.00576  11.17204
   Y18       -3.81598  -0.00023   0.00000   0.00777   0.00593  -3.81005
   Z18       -0.00046   0.00000   0.00000   0.00000   0.00000  -0.00046
   X19       12.48981   0.00035   0.00000  -0.02005  -0.02005  12.46976
   Y19        4.23560  -0.00047   0.00000  -0.00447  -0.00632   4.22929
   Z19       -0.00037  -0.00000   0.00000  -0.00000  -0.00000  -0.00037
   X20       14.11773   0.00236   0.00000  -0.00223  -0.00223  14.11550
   Y20       -0.13412  -0.00018   0.00000  -0.00405  -0.00589  -0.14001
   Z20       -0.00062  -0.00000   0.00000   0.00000   0.00000  -0.00062
   X21       -6.95955   0.01303   0.00000   0.03349   0.03349  -6.92606
   Y21        1.10570  -0.00824   0.00000  -0.01830  -0.02015   1.08556
   Z21       -0.00007  -0.00000   0.00000   0.00001   0.00001  -0.00006
   X22       -3.60026  -0.00456   0.00000   0.03447   0.03447  -3.56580
   Y22       -1.70262   0.00518   0.00000  -0.00335  -0.00519  -1.70781
   Z22        0.00019  -0.00002   0.00000  -0.00005  -0.00005   0.00014
   X23       -7.88335  -0.01414   0.00000   0.00512   0.00512  -7.87824
   Y23       -1.40210   0.00515   0.00000   0.00755   0.00571  -1.39639
   Z23       -0.00013  -0.00000   0.00000   0.00001   0.00001  -0.00012
   X24       -8.57566  -0.01235   0.00000   0.01724   0.01724  -8.55842
   Y24        3.14750   0.00616   0.00000  -0.00256  -0.00441   3.14310
   Z24       -0.00010  -0.00000   0.00000  -0.00000  -0.00000  -0.00010
   X25      -10.45570  -0.00515   0.00000   0.00162   0.00162 -10.45408
   Y25       -1.89353   0.00895   0.00000   0.00743   0.00559  -1.88793
   Z25       -0.00019  -0.00000   0.00000  -0.00000  -0.00000  -0.00019
   X26      -11.18556   0.01164   0.00000   0.02808   0.02808 -11.15747
   Y26        2.65125   0.00851   0.00000   0.00005  -0.00179   2.64946
   Z26       -0.00019   0.00000   0.00000   0.00000   0.00000  -0.00019
   X27       -7.87266  -0.00096   0.00000   0.00527   0.00527  -7.86739
   Y27        5.07284  -0.00104   0.00000  -0.00199  -0.00383   5.06901
   Z27       -0.00004  -0.00000   0.00000  -0.00000  -0.00000  -0.00005
   X28      -12.09908   0.00285   0.00000   0.01035   0.01035 -12.08873
   Y28        0.19898  -0.01571   0.00000  -0.01150  -0.01335   0.18564
   Z28       -0.00023   0.00000   0.00000   0.00000  -0.00000  -0.00023
   X29      -11.16627  -0.00114   0.00000  -0.00577  -0.00577 -11.17203
   Y29       -3.81600  -0.00023   0.00000   0.00778   0.00594  -3.81006
   Z29       -0.00020  -0.00000   0.00000  -0.00000  -0.00000  -0.00020
   X30      -12.48981  -0.00035   0.00000   0.02006   0.02006 -12.46976
   Y30        4.23559  -0.00048   0.00000  -0.00449  -0.00633   4.22926
   Z30       -0.00020  -0.00000   0.00000  -0.00000  -0.00000  -0.00021
   X31      -14.11771  -0.00238   0.00000   0.00222   0.00222 -14.11550
   Y31       -0.13414  -0.00018   0.00000  -0.00406  -0.00590  -0.14004
   Z31       -0.00029   0.00000   0.00000   0.00000   0.00000  -0.00029
   X32       -4.34302  -0.03418   0.00000   0.03131   0.03131  -4.31171
   Y32        0.90455  -0.07408   0.00000  -0.06971  -0.07155   0.83300
   Z32        0.00001   0.00001   0.00000   0.00002   0.00002   0.00004
   X33       -5.86585   0.02956   0.00000   0.04941   0.04941  -5.81644
   Y33       -3.03121   0.02921   0.00000   0.03397   0.03213  -2.99908
   Z33       -0.00010   0.00001   0.00000   0.00003   0.00003  -0.00008
   X34        4.34303   0.03418   0.00000  -0.03131  -0.03131   4.31171
   Y34        0.90453  -0.07406   0.00000  -0.06970  -0.07154   0.83299
   Z34        0.00014   0.00001   0.00000   0.00001   0.00001   0.00015
   X35        5.86587  -0.02957   0.00000  -0.04941  -0.04941   5.81646
   Y35       -3.03120   0.02921   0.00000   0.03397   0.03213  -2.99907
   Z35       -0.00010   0.00001   0.00000   0.00002   0.00002  -0.00008
   X36        6.02667  -0.00013   0.00000  -0.01896  -0.01896   6.00772
   Y36       -5.71119  -0.01610   0.00000   0.00658   0.00474  -5.70645
   Z36        0.00002  -0.00000   0.00000   0.00000  -0.00000   0.00001
   X37        7.00705   0.00081   0.00000  -0.00269  -0.00269   7.00436
   Y37       -6.41127   0.00145   0.00000   0.02147   0.01963  -6.39164
   Z37       -1.68963   0.00127   0.00000   0.00547   0.00547  -1.68417
   X38        7.00622   0.00081   0.00000  -0.00269  -0.00269   7.00353
   Y38       -6.41129   0.00146   0.00000   0.02148   0.01964  -6.39165
   Z38        1.69015  -0.00127   0.00000  -0.00546  -0.00547   1.68468
   X39        4.11867   0.00117   0.00000  -0.01399  -0.01399   4.10468
   Y39       -6.51418   0.00361   0.00000   0.01569   0.01385  -6.50033
   Z39       -0.00049   0.00000   0.00000   0.00001   0.00001  -0.00048
   X40       -6.02666   0.00014   0.00000   0.01896   0.01896  -6.00770
   Y40       -5.71120  -0.01610   0.00000   0.00658   0.00474  -5.70646
   Z40        0.00009  -0.00000   0.00000   0.00000  -0.00000   0.00009
   X41       -7.00609  -0.00081   0.00000   0.00269   0.00269  -7.00340
   Y41       -6.41127   0.00146   0.00000   0.02148   0.01964  -6.39163
   Z41        1.69030  -0.00127   0.00000  -0.00546  -0.00546   1.68484
   X42       -7.00714  -0.00082   0.00000   0.00269   0.00269  -7.00445
   Y42       -6.41131   0.00145   0.00000   0.02147   0.01963  -6.39168
   Z42       -1.68948   0.00127   0.00000   0.00547   0.00547  -1.68401
   X43       -4.11864  -0.00117   0.00000   0.01399   0.01399  -4.10466
   Y43       -6.51418   0.00361   0.00000   0.01569   0.01385  -6.50034
   Z43       -0.00054   0.00000   0.00000   0.00002   0.00001  -0.00053
   X44        0.00001  -0.00000   0.00000  -0.00001  -0.00001   0.00001
   Y44       -2.28607   0.04600   0.00000   0.06268   0.06084  -2.22523
   Z44        0.00020   0.00001   0.00000  -0.00003  -0.00003   0.00017
         Item               Value     Threshold  Converged?
 Maximum Force            0.085907     0.000450     NO 
 RMS     Force            0.018890     0.000300     NO 
 Maximum Displacement     0.143351     0.001800     NO 
 RMS     Displacement     0.026177     0.001200     NO 
 Predicted change in Energy=-2.496650D-02
 GradGradGradGradGradGradGradGradGradGradGradGradGradGradGradGradGradGrad

 Unable to Open any file for archive entry.
 1\1\GINC-X11P1N5\Force\UPBE1PBE\GenECP\C22H17Co1N4\MAYUMIAO\17-Jul-202
 4\0\\# pbe1pbe em=gd3bj genecp g09default scf=(xqc,maxcycle=64) force 
 guess=read nosymm\\Title Card\\0,1\C,0.00000631,0.77642087,0.00006057\
 C,-1.28548125,1.35323371,0.00003992\C,-1.2524838,2.74492383,-0.0000032
 7\C,-0.00000492,3.38207089,0.00001202\C,1.25249479,2.74492224,0.000045
 97\C,1.28547398,1.35323726,0.00007867\H,-2.1633104,3.33224264,-0.00004
 52\H,0.00000059,4.46579088,-0.00001017\H,2.1633098,3.33224255,0.000047
 58\C,3.68285722,0.58513303,-0.00002127\C,1.90518284,-0.9009818,0.00012
 598\C,4.1716738,-0.74194856,-0.0000931\C,4.5380262,1.6655737,-0.000054
 7\C,5.53294878,-1.00200178,-0.00019487\C,5.91915541,1.40299512,-0.0001
 7076\H,4.16603087,2.68444165,0.00001036\C,6.40254794,0.10529877,-0.000
 24161\H,5.90894009,-2.01932918,-0.00024457\H,6.60932209,2.24138346,-0.
 00019568\H,7.47078232,-0.07097275,-0.00032756\C,-3.68283544,0.58511252
 ,-0.00003576\C,-1.90517717,-0.90098623,0.00009866\C,-4.17168993,-0.741
 9584,-0.00006784\C,-4.53804397,1.66558608,-0.00005302\C,-5.53291783,-1
 .00201052,-0.0000999\C,-5.91914215,1.40298191,-0.00009948\H,-4.1660307
 6,2.68443359,-0.00002306\C,-6.40255676,0.10529605,-0.00012254\H,-5.908
 9343,-2.0193394,-0.00010547\H,-6.60932532,2.24137811,-0.00010773\H,-7.
 47077266,-0.07098323,-0.0001527\N,-2.29822834,0.4786665,0.00000768\N,-
 3.10407504,-1.60404466,-0.00005533\N,2.29823136,0.47865882,0.00007413\
 N,3.10408366,-1.60404412,-0.00005516\C,3.18917879,-3.02223402,0.000008
 4\H,3.70797125,-3.39269704,-0.89411579\H,3.70753381,-3.39270937,0.8943
 8814\H,2.17950388,-3.44715645,-0.00026018\C,-3.18917152,-3.02223927,0.
 00004671\H,-3.70746172,-3.39269709,0.89446888\H,-3.7080212,-3.39271785
 ,-0.89403409\H,-2.17949294,-3.44715815,-0.00028774\Co,0.00000748,-1.20
 9737,0.00010489\\Version=ES64L-G16RevC.01\HF=-1212.1191203\S2=0.\S2-1=
 0.\S2A=0.\RMSD=4.703e-09\RMSF=1.889e-02\Dipole=0.0000137,-1.4981959,-0
 .0000849\Quadrupole=13.3902717,7.1172755,-20.5075472,0.0002958,-0.0003
 772,0.0001758\PG=C01 [X(C22H17Co1N4)]\\@
 The archive entry for this job was punched.


 I DO NOT KNOW WHAT I MAY APPEAR TO THE WORLD; BUT TO MYSELF
 I SEEM TO HAVE BEEN ONLY LIKE A BOY PLAYING ON THE SEASHORE,
 AND DIVERTING MYSELF IN NOW AND THEN FINDING A SMOOTHER PEBBLE
 OR A PRETTIER SHELL THAN ORDINARY, WHILST THE GREAT OCEAN OF
 TRUTH LAY ALL UNDISCOVERED BEFORE ME.
                                          -- NEWTON (1642-1726)
 Job cpu time:       0 days  0 hours 40 minutes 14.5 seconds.
 Elapsed time:       0 days  0 hours  0 minutes 44.0 seconds.
 File lengths (MBytes):  RWF=    184 Int=      0 D2E=      0 Chk=    162 Scr=      1
 Normal termination of Gaussian 16 at Wed Jul 17 21:03:40 2024.
