 Entering Gaussian System, Link 0=g16
 Input=JOBS/19_B.gjf
 Output=JOBS/19_B.log
 Initial command:
 /data/app/gaussian/C01-avx2//g16/l1.exe "/tmp/Gau-2066973.inp" -scrdir="/tmp/"
 Entering Link 1 = /data/app/gaussian/C01-avx2//g16/l1.exe PID=   2066974.
  
 Copyright (c) 1988-2019, Gaussian, Inc.  All Rights Reserved.
  
 This is part of the Gaussian(R) 16 program.  It is based on
 the Gaussian(R) 09 system (copyright 2009, Gaussian, Inc.),
 the Gaussian(R) 03 system (copyright 2003, Gaussian, Inc.),
 the Gaussian(R) 98 system (copyright 1998, Gaussian, Inc.),
 the Gaussian(R) 94 system (copyright 1995, Gaussian, Inc.),
 the Gaussian 92(TM) system (copyright 1992, Gaussian, Inc.),
 the Gaussian 90(TM) system (copyright 1990, Gaussian, Inc.),
 the Gaussian 88(TM) system (copyright 1988, Gaussian, Inc.),
 the Gaussian 86(TM) system (copyright 1986, Carnegie Mellon
 University), and the Gaussian 82(TM) system (copyright 1983,
 Carnegie Mellon University). Gaussian is a federally registered
 trademark of Gaussian, Inc.
  
 This software contains proprietary and confidential information,
 including trade secrets, belonging to Gaussian, Inc.
  
 This software is provided under written license and may be
 used, copied, transmitted, or stored only in accord with that
 written license.
  
 The following legend is applicable only to US Government
 contracts under FAR:
  
                    RESTRICTED RIGHTS LEGEND
  
 Use, reproduction and disclosure by the US Government is
 subject to restrictions as set forth in subparagraphs (a)
 and (c) of the Commercial Computer Software - Restricted
 Rights clause in FAR 52.227-19.
  
 Gaussian, Inc.
 340 Quinnipiac St., Bldg. 40, Wallingford CT 06492
  
  
 ---------------------------------------------------------------
 Warning -- This program may not be used in any manner that
 competes with the business of Gaussian, Inc. or will provide
 assistance to any competitor of Gaussian, Inc.  The licensee
 of this program is prohibited from giving any competitor of
 Gaussian, Inc. access to this program.  By using this program,
 the user acknowledges that Gaussian, Inc. is engaged in the
 business of creating and licensing software in the field of
 computational chemistry and represents and warrants to the
 licensee that it is not a competitor of Gaussian, Inc. and that
 it will not use this program in any manner prohibited above.
 ---------------------------------------------------------------
  

 Cite this work as:
 Gaussian 16, Revision C.01,
 M. J. Frisch, G. W. Trucks, H. B. Schlegel, G. E. Scuseria, 
 M. A. Robb, J. R. Cheeseman, G. Scalmani, V. Barone, 
 G. A. Petersson, H. Nakatsuji, X. Li, M. Caricato, A. V. Marenich, 
 J. Bloino, B. G. Janesko, R. Gomperts, B. Mennucci, H. P. Hratchian, 
 J. V. Ortiz, A. F. Izmaylov, J. L. Sonnenberg, D. Williams-Young, 
 F. Ding, F. Lipparini, F. Egidi, J. Goings, B. Peng, A. Petrone, 
 T. Henderson, D. Ranasinghe, V. G. Zakrzewski, J. Gao, N. Rega, 
 G. Zheng, W. Liang, M. Hada, M. Ehara, K. Toyota, R. Fukuda, 
 J. Hasegawa, M. Ishida, T. Nakajima, Y. Honda, O. Kitao, H. Nakai, 
 T. Vreven, K. Throssell, J. A. Montgomery, Jr., J. E. Peralta, 
 F. Ogliaro, M. J. Bearpark, J. J. Heyd, E. N. Brothers, K. N. Kudin, 
 V. N. Staroverov, T. A. Keith, R. Kobayashi, J. Normand, 
 K. Raghavachari, A. P. Rendell, J. C. Burant, S. S. Iyengar, 
 J. Tomasi, M. Cossi, J. M. Millam, M. Klene, C. Adamo, R. Cammi, 
 J. W. Ochterski, R. L. Martin, K. Morokuma, O. Farkas, 
 J. B. Foresman, and D. J. Fox, Gaussian, Inc., Wallingford CT, 2019.
 
 ******************************************
 Gaussian 16:  ES64L-G16RevC.01  3-Jul-2019
                17-Jul-2024 
 ******************************************
 %chk=b.chk
 %nprocshared=56
 Will use up to   56 processors via shared memory.
 %mem=96gb
 ----------------------------------------------------------------------
 # pbe1pbe em=gd3bj genecp g09default scf=(xqc,maxcycle=64) force guess
 =read nosymm
 ----------------------------------------------------------------------
 1/10=7,30=1,38=1,158=3,167=1/1,3;
 2/12=2,15=1,17=6,18=5,40=1/2;
 3/5=7,11=2,16=1,17=8,25=1,27=10,30=1,71=1,74=-13,75=-4,116=-2,124=41,158=3/1,2,3;
 4/5=1,60=-1/1;
 5/5=2,7=64,8=3,13=1,38=6,87=10/2,8;
 6/7=2,8=2,9=2,10=2,28=1,87=10/1;
 7/29=1,30=1,87=10/1,2,3,16;
 1/10=7,30=1,158=3,167=1/3;
 99//99;
 Using 2006 physical constants.
 ----------
 Title Card
 ----------
 Symbolic Z-matrix:
 Charge =  0 Multiplicity = 3
 6                     0.00001   0.77642   0.00006 
 6                    -1.28548   1.35323   0.00004 
 6                    -1.25248   2.74492  0. 
 6                    0.         3.38207   0.00001 
 6                     1.25249   2.74492   0.00005 
 6                     1.28547   1.35324   0.00008 
 1                    -2.16331   3.33224  -0.00005 
 1                     0.        4.46579  -0.00001 
 1                     2.16331   3.33224   0.00005 
 6                     3.68286   0.58513  -0.00002 
 6                     1.90518  -0.90098   0.00013 
 6                     4.17167  -0.74195  -0.00009 
 6                     4.53803   1.66557  -0.00005 
 6                     5.53295  -1.002    -0.00019 
 6                     5.91916   1.403    -0.00017 
 1                     4.16603   2.68444   0.00001 
 6                     6.40255   0.1053   -0.00024 
 1                     5.90894  -2.01933  -0.00024 
 1                     6.60932   2.24138  -0.0002 
 1                     7.47078  -0.07097  -0.00033 
 6                    -3.68284   0.58511  -0.00004 
 6                    -1.90518  -0.90099   0.0001 
 6                    -4.17169  -0.74196  -0.00007 
 6                    -4.53804   1.66559  -0.00005 
 6                    -5.53292  -1.00201  -0.0001 
 6                    -5.91914   1.40298  -0.0001 
 1                    -4.16603   2.68443  -0.00002 
 6                    -6.40256   0.1053   -0.00012 
 1                    -5.90893  -2.01934  -0.00011 
 1                    -6.60933   2.24138  -0.00011 
 1                    -7.47077  -0.07098  -0.00015 
 7                    -2.29823   0.47867   0.00001 
 7                    -3.10408  -1.60404  -0.00006 
 7                     2.29823   0.47866   0.00007 
 7                     3.10408  -1.60404  -0.00006 
 6                     3.18918  -3.02223   0.00001 
 1                     3.70797  -3.3927   -0.89412 
 1                     3.70753  -3.39271   0.89439 
 1                     2.1795   -3.44716  -0.00026 
 6                    -3.18917  -3.02224   0.00005 
 1                    -3.70746  -3.3927    0.89447 
 1                    -3.70802  -3.39272  -0.89403 
 1                    -2.17949  -3.44716  -0.00029 
 27                    0.00001  -1.20974   0.0001 
 

 GradGradGradGradGradGradGradGradGradGradGradGradGradGradGradGradGradGrad
 Berny optimization.
 Initialization pass.
 Trust Radius=3.00D-01 FncErr=1.00D-07 GrdErr=1.00D-07 EigMax=2.50D+02 EigMin=1.00D-04
 Number of steps in this run=      2 maximum allowed number of steps=      2.
 GradGradGradGradGradGradGradGradGradGradGradGradGradGradGradGradGradGrad

                          Input orientation:                          
 ---------------------------------------------------------------------
 Center     Atomic      Atomic             Coordinates (Angstroms)
 Number     Number       Type             X           Y           Z
 ---------------------------------------------------------------------
      1          6           0        0.000006    0.776421    0.000061
      2          6           0       -1.285481    1.353234    0.000040
      3          6           0       -1.252484    2.744924   -0.000003
      4          6           0       -0.000005    3.382071    0.000012
      5          6           0        1.252495    2.744922    0.000046
      6          6           0        1.285474    1.353237    0.000079
      7          1           0       -2.163310    3.332243   -0.000045
      8          1           0        0.000001    4.465791   -0.000010
      9          1           0        2.163310    3.332243    0.000048
     10          6           0        3.682857    0.585133   -0.000021
     11          6           0        1.905183   -0.900982    0.000126
     12          6           0        4.171674   -0.741949   -0.000093
     13          6           0        4.538026    1.665574   -0.000055
     14          6           0        5.532949   -1.002002   -0.000195
     15          6           0        5.919155    1.402995   -0.000171
     16          1           0        4.166031    2.684442    0.000010
     17          6           0        6.402548    0.105299   -0.000242
     18          1           0        5.908940   -2.019329   -0.000245
     19          1           0        6.609322    2.241383   -0.000196
     20          1           0        7.470782   -0.070973   -0.000328
     21          6           0       -3.682835    0.585113   -0.000036
     22          6           0       -1.905177   -0.900986    0.000099
     23          6           0       -4.171690   -0.741958   -0.000068
     24          6           0       -4.538044    1.665586   -0.000053
     25          6           0       -5.532918   -1.002011   -0.000100
     26          6           0       -5.919142    1.402982   -0.000099
     27          1           0       -4.166031    2.684434   -0.000023
     28          6           0       -6.402557    0.105296   -0.000123
     29          1           0       -5.908934   -2.019339   -0.000105
     30          1           0       -6.609325    2.241378   -0.000108
     31          1           0       -7.470773   -0.070983   -0.000153
     32          7           0       -2.298228    0.478667    0.000008
     33          7           0       -3.104075   -1.604045   -0.000055
     34          7           0        2.298231    0.478659    0.000074
     35          7           0        3.104084   -1.604044   -0.000055
     36          6           0        3.189179   -3.022234    0.000008
     37          1           0        3.707971   -3.392697   -0.894116
     38          1           0        3.707534   -3.392709    0.894388
     39          1           0        2.179504   -3.447156   -0.000260
     40          6           0       -3.189172   -3.022239    0.000047
     41          1           0       -3.707462   -3.392697    0.894469
     42          1           0       -3.708021   -3.392718   -0.894034
     43          1           0       -2.179493   -3.447158   -0.000288
     44         27           0        0.000007   -1.209737    0.000105
 ---------------------------------------------------------------------
                    Distance matrix (angstroms):
                    1          2          3          4          5
     1  C    0.000000
     2  C    1.408968   0.000000
     3  C    2.333181   1.392081   0.000000
     4  C    2.605650   2.401797   1.405226   0.000000
     5  C    2.333179   2.894498   2.504979   1.405245   0.000000
     6  C    1.408951   2.570955   2.894481   2.401796   1.392076
     7  H    3.348457   2.164962   1.083766   2.163879   3.465930
     8  H    3.689370   3.367562   2.128403   1.083720   2.128410
     9  H    3.348448   3.976259   3.465918   2.163889   1.083757
    10  C    3.687815   5.027362   5.387234   4.624536   3.251361
    11  C    2.538381   3.906639   4.823224   4.687673   3.703865
    12  C    4.439398   5.845539   6.448237   5.866041   4.547513
    13  C    4.624307   5.831878   5.890246   4.851813   3.458281
    14  C    5.811733   7.213745   7.751229   7.059297   5.688737
    15  C    5.952220   7.204809   7.296107   6.241250   4.855769
    16  H    4.582172   5.611693   5.418852   4.224043   2.914164
    17  C    6.437619   7.788654   8.097353   7.192351   5.787112
    18  H    6.536950   7.945683   8.601401   8.005670   6.661875
    19  H    6.769725   7.944604   7.877915   6.707039   5.380441
    20  H    7.518681   8.871331   9.166496   8.230199   6.826153
    21  C    3.687807   2.517403   3.251368   4.624523   5.387231
    22  C    2.538389   2.337847   3.703872   4.687671   4.823229
    23  C    4.439428   3.566515   4.547539   5.866053   6.448265
    24  C    4.624339   3.267526   3.458305   4.851816   5.890272
    25  C    5.811718   4.856737   5.688729   7.059270   7.751215
    26  C    5.952218   4.633928   4.855771   6.241232   7.296107
    27  H    4.582180   3.173273   2.914175   4.224035   5.418863
    28  C    6.437641   5.267049   5.787131   7.192352   8.097372
    29  H    6.536961   5.722811   6.661887   8.005665   8.601410
    30  H    6.769739   5.397418   5.380456   6.707033   7.877929
    31  H    7.518686   6.347143   6.826159   8.230186   9.166500
    32  N    2.317443   1.338105   2.495897   3.702916   4.212309
    33  N    3.911769   3.471711   4.726724   5.873381   6.155746
    34  N    2.317434   3.688886   4.212308   3.702930   2.495900
    35  N    3.911766   5.292804   6.155745   5.873390   4.726721
    36  C    4.959899   6.258378   7.279318   7.154440   6.083653
    37  H    5.650672   6.946794   7.942036   7.774705   6.670777
    38  H    5.650418   6.946512   7.941804   7.774535   6.670651
    39  H    4.752769   5.920293   7.079576   7.168585   6.261085
    40  C    4.959907   4.771666   6.083661   7.154437   7.279324
    41  H    5.650383   5.402763   6.670636   7.774495   7.941759
    42  H    5.650716   5.402974   6.670802   7.774733   7.942086
    43  H    4.752771   4.882931   6.261088   7.168580   7.079576
    44  Co   1.986158   2.867281   4.148262   4.591808   4.148259
                    6          7          8          9         10
     6  C    0.000000
     7  H    3.976252   0.000000
     8  H    3.367556   2.442303   0.000000
     9  H    2.164961   4.326620   2.442302   0.000000
    10  C    2.517425   6.459434   5.350041   3.139369   0.000000
    11  C    2.337850   5.871356   5.694907   4.241087   2.317038
    12  C    3.566504   7.532002   6.672586   4.542308   1.414244
    13  C    3.267514   6.905483   5.332438   2.901218   1.377921
    14  C    4.856768   8.832784   7.778835   5.490004   2.437588
    15  C    4.633949   8.309528   6.664616   4.222366   2.381161
    16  H    3.173281   6.362406   4.530895   2.104884   2.154194
    17  C    5.267048   9.153529   7.746387   5.327692   2.761695
    18  H    5.722818   9.685068   8.773389   6.532156   3.426174
    19  H    5.397422   8.840195   6.973602   4.577881   3.362642
    20  H    6.347158  10.217515   8.740412   6.304850   3.844327
    21  C    5.027337   3.139376   5.350042   6.459422   7.365693
    22  C    3.906633   4.241092   5.694910   5.871355   5.782273
    23  C    5.845552   4.542323   6.672605   7.532021   7.965870
    24  C    5.831888   2.901225   5.332447   6.905497   8.291598
    25  C    7.213713   5.489991   7.778820   8.832761   9.351446
    26  C    7.204788   4.222359   6.664612   8.309517   9.636767
    27  H    5.611683   2.104886   4.530900   6.362406   8.124783
    28  C    7.788657   5.327701   7.746396   9.153538  10.096822
    29  H    7.945677   6.532161   8.773393   9.685069   9.939102
    30  H    7.944599   4.577885   6.973607   8.840199  10.424594
    31  H    8.871317   6.304847   8.740410  10.217509  11.172911
    32  N    3.688875   2.856764   4.602067   5.296057   5.982033
    33  N    5.292793   5.025134   6.817491   7.218883   7.131266
    34  N    1.338120   5.296064   4.602074   2.856772   1.388714
    35  N    3.471722   7.218890   6.817494   5.025135   2.264393
    36  C    4.771671   8.308340   8.138880   6.436752   3.640991
    37  H    5.402959   8.971963   8.735233   6.957752   4.077152
    38  H    5.402793   8.971722   8.735089   6.957690   4.077230
    39  H    4.882937   8.051105   8.207617   6.779418   4.303421
    40  C    6.258374   6.436756   8.138883   8.308339   7.761309
    41  H    6.946455   6.957684   8.735056   8.971664   8.440383
    42  H    6.946835   6.957761   8.735266   8.972012   8.440832
    43  H    5.920286   6.779420   8.207616   8.051100   7.115232
    44  Co   2.867274   5.030857   5.675528   5.030850   4.096943
                   11         12         13         14         15
    11  C    0.000000
    12  C    2.272064   0.000000
    13  C    3.676829   2.435237   0.000000
    14  C    3.629172   1.385892   2.847074   0.000000
    15  C    4.628205   2.766672   1.405868   2.435809   0.000000
    16  H    4.238714   3.426395   1.084653   3.931708   2.171532
    17  C    4.608567   2.386342   2.431234   1.407948   1.384805
    18  H    4.157015   2.156338   3.931655   1.084585   3.422340
    19  H    5.657153   3.852583   2.149843   3.417328   1.085921
    20  H    5.627150   3.366649   3.408321   2.149887   2.140123
    21  C    5.782251   7.965827   8.291560   9.351450   9.636761
    22  C    3.810360   6.078932   6.935568   7.438812   8.156501
    23  C    6.078953   8.343364   9.036336   9.708122  10.316297
    24  C    6.935592   9.036338   9.076070  10.418297  10.460496
    25  C    7.438787   9.708076  10.418249  11.065867  11.701882
    26  C    8.156489  10.316264  10.460465  11.701894  11.838298
    27  H    7.050875   9.014289   8.763486  10.375934  10.166271
    28  C    8.368461  10.608118  11.051281  11.986759  12.389859
    29  H    7.893741  10.161220  11.077796  11.487022  12.313248
    30  H    9.075862  11.186160  11.162213  12.567988  12.556501
    31  H    9.412621  11.661765  12.133708  13.037008  13.470812
    32  N    4.424036   6.584036   6.938525   7.969926   8.269207
    33  N    5.058356   7.326645   8.312167   8.657981   9.511098
    34  N    1.434537   2.235994   2.534847   3.557492   3.737043
    35  N    1.389842   1.372209   3.570237   2.502367   4.119091
    36  C    2.479588   2.482941   4.878005   3.094284   5.199560
    37  H    3.202867   2.835624   5.203310   3.137684   5.356037
    38  H    3.202636   2.835852   5.203458   3.138137   5.356332
    39  H    2.560910   3.359597   5.630509   4.150226   6.124456
    40  C    5.518349   7.705957   9.037985   8.953030  10.126417
    41  H    6.205665   8.361070   9.714646   9.586503  10.792164
    42  H    6.206153   8.361537   9.715082   9.586970  10.792608
    43  H    4.813272   6.903295   8.441865   8.090769   9.439920
    44  Co   1.930032   4.197812   5.372246   5.536840   6.470138
                   16         17         18         19         20
    16  H    0.000000
    17  C    3.413794   0.000000
    18  H    5.016293   2.181214   0.000000
    19  H    2.483138   2.146069   4.317894   0.000000
    20  H    4.302754   1.082680   2.497087   2.467611   0.000000
    21  C    8.124770  10.096791   9.939078  10.424574  11.172897
    22  C    7.050877   8.368447   7.893739   9.075857   9.412627
    23  C    9.014311  10.608127  10.161239  11.186177  11.661792
    24  C    8.763503  11.051292  11.077819  11.162227  12.133736
    25  C   10.375911  11.986721  11.486995  12.567959  13.036988
    26  C   10.166261  12.389836  12.313234  12.556486  13.470806
    27  H    8.332062  10.878731  11.118922  10.784457  11.958582
    28  C   10.878742  12.805105  12.493478  13.186048  13.874459
    29  H   11.118924  12.493466  11.817874  13.223483  13.520834
    30  H   10.784461  13.186041  13.223487  13.218647  14.268721
    31  H   11.958577  13.874441  13.520827  14.268711  14.941555
    32  N    6.830234   8.708784   8.578904   9.080288   9.784461
    33  N    8.440708   9.659075   9.022577  10.446885  10.685407
    34  N    2.890355   4.121263   4.390576   4.657542   5.201671
    35  N    4.418013   3.715067   2.835433   5.203269   4.627998
    36  C    5.789679   4.484106   2.898779   6.277185   5.200199
    37  H    6.159618   4.505078   2.743977   6.399984   5.098182
    38  H    6.159699   4.505499   2.744582   6.400286   5.098675
    39  H    6.445369   5.518518   3.993418   7.209908   6.276643
    40  C    9.309415  10.088735   9.153221  11.122778  11.060949
    41  H    9.986168  10.735398   9.755093  11.788949  11.695625
    42  H    9.986585  10.735856   9.755563  11.789386  11.696083
    43  H    8.823955   9.288239   8.213492  10.469134  10.223817
    44  Co   5.702664   6.536195   5.964137   7.456090   7.557067
                   21         22         23         24         25
    21  C    0.000000
    22  C    2.317015   0.000000
    23  C    1.414247   2.272085   0.000000
    24  C    1.377971   3.676857   2.435259   0.000000
    25  C    2.437573   3.629147   1.385846   2.847077   0.000000
    26  C    2.381172   4.628194   2.766651   1.405843   2.435807
    27  H    2.154211   4.238714   3.426397   1.084640   3.931698
    28  C    2.761722   4.608582   2.386338   2.431237   1.407977
    29  H    3.426177   4.157016   2.156321   3.931668   1.084595
    30  H    3.362671   5.657160   3.852579   2.149824   3.417341
    31  H    3.844337   5.627145   3.366624   3.408309   2.149905
    32  N    1.388693   1.434549   2.236020   2.534867   3.557474
    33  N    2.264370   1.389837   1.372222   3.570259   2.502343
    34  N    5.982014   4.424033   6.584056   6.938549   7.969898
    35  N    7.131247   5.058358   7.326669   8.312196   8.657958
    36  C    7.761284   5.518347   7.705975   9.038010   8.953004
    37  H    8.440757   6.206100   8.361507   9.715058   9.586901
    38  H    8.440416   6.205720   8.361142   9.714728   9.586527
    39  H    7.115210   4.813274   6.903315   8.441895   8.090747
    40  C    3.640974   2.479588   2.482946   4.878029   3.094264
    41  H    4.077219   3.202616   2.835863   5.203486   3.138140
    42  H    4.077132   3.202881   2.835611   5.203324   3.137650
    43  H    4.303399   2.560906   3.359606   5.630534   4.150205
    44  Co   4.096928   1.930040   4.197842   5.372280   5.536823
                   26         27         28         29         30
    26  C    0.000000
    27  H    2.171524   0.000000
    28  C    1.384803   3.413795   0.000000
    29  H    3.422337   5.016293   2.181224   0.000000
    30  H    1.085938   2.483140   2.146066   4.317900   0.000000
    31  H    2.140124   4.302748   1.082663   2.497084   2.467611
    32  N    3.737028   2.890345   4.121276   4.390584   4.657543
    33  N    4.119079   4.418008   3.715081   2.835437   5.203274
    34  N    8.269196   6.830236   8.708795   8.578902   9.080294
    35  N    9.511089   8.440711   9.659092   9.022581  10.446894
    36  C   10.126403   9.309413  10.088748   9.153221  11.122783
    37  H   10.792549   9.986532  10.735826   9.755523  11.789345
    38  H   10.792203   9.986223  10.735461   9.755138  11.789005
    39  H    9.439910   8.823956   9.288255   8.213495  10.469142
    40  C    5.199550   5.789678   4.484119   2.898779   6.277190
    41  H    5.356335   6.159701   4.505529   2.744605   6.400303
    42  H    5.356016   6.159610   4.505075   2.743956   6.399977
    43  H    6.124446   6.445367   5.518532   3.993419   7.209914
    44  Co   6.470134   5.702669   6.536218   5.964147   7.456103
                   31         32         33         34         35
    31  H    0.000000
    32  N    5.201666   0.000000
    33  N    4.627994   2.233176   0.000000
    34  N    9.784454   4.596460   5.789868   0.000000
    35  N   10.685404   5.789876   6.208159   2.233170   0.000000
    36  C   11.060942   6.509066   6.451070   3.612484   1.420741
    37  H   11.696036   7.201482   7.099479   4.215962   2.088852
    38  H   11.695666   7.201156   7.099110   4.215854   2.088900
    39  H   10.223814   5.955012   5.595826   3.927610   2.062016
    40  C    5.200194   3.612495   1.420745   6.509061   6.451073
    41  H    5.098690   4.215858   2.088906   7.201089   7.099056
    42  H    5.098161   4.215975   2.088852   7.201532   7.099530
    43  H    6.276639   3.927620   2.062018   5.955002   5.595824
    44  Co   7.557071   2.851770   3.129027   2.851756   3.129020
                   36         37         38         39         40
    36  C    0.000000
    37  H    1.098110   0.000000
    38  H    1.098116   1.788504   0.000000
    39  H    1.095446   1.771484   1.771507   0.000000
    40  C    6.378350   6.964721   6.964312   5.385465   0.000000
    41  H    6.964263   7.628085   7.414996   5.954819   1.098114
    42  H    6.964764   7.415992   7.628166   5.955229   1.098107
    43  H    5.385462   5.955177   5.954871   4.358997   1.095448
    44  Co   3.668237   4.394763   4.394413   3.123500   3.668246
                   41         42         43         44
    41  H    0.000000
    42  H    1.788503   0.000000
    43  H    1.771509   1.771481   0.000000
    44  Co   4.394375   4.394811   3.123504   0.000000
 Symmetry turned off by external request.
 Stoichiometry    C22H17CoN4(3)
 Framework group  C1[X(C22H17CoN4)]
 Deg. of freedom   126
 Full point group                 C1      NOp   1
 Rotational constants (GHZ):           0.4674226           0.1009403           0.0831015
 General basis read from cards:  (5D, 7F)
 ======================================================================================================
                                       Pseudopotential Parameters
 ======================================================================================================
  Center     Atomic      Valence      Angular      Power
  Number     Number     Electrons     Momentum     of R      Exponent        Coefficient   SO-Coeffient
 ======================================================================================================
    1          6
                                   No pseudopotential on this center.
    2          6
                                   No pseudopotential on this center.
    3          6
                                   No pseudopotential on this center.
    4          6
                                   No pseudopotential on this center.
    5          6
                                   No pseudopotential on this center.
    6          6
                                   No pseudopotential on this center.
    7          1
                                   No pseudopotential on this center.
    8          1
                                   No pseudopotential on this center.
    9          1
                                   No pseudopotential on this center.
   10          6
                                   No pseudopotential on this center.
   11          6
                                   No pseudopotential on this center.
   12          6
                                   No pseudopotential on this center.
   13          6
                                   No pseudopotential on this center.
   14          6
                                   No pseudopotential on this center.
   15          6
                                   No pseudopotential on this center.
   16          1
                                   No pseudopotential on this center.
   17          6
                                   No pseudopotential on this center.
   18          1
                                   No pseudopotential on this center.
   19          1
                                   No pseudopotential on this center.
   20          1
                                   No pseudopotential on this center.
   21          6
                                   No pseudopotential on this center.
   22          6
                                   No pseudopotential on this center.
   23          6
                                   No pseudopotential on this center.
   24          6
                                   No pseudopotential on this center.
   25          6
                                   No pseudopotential on this center.
   26          6
                                   No pseudopotential on this center.
   27          1
                                   No pseudopotential on this center.
   28          6
                                   No pseudopotential on this center.
   29          1
                                   No pseudopotential on this center.
   30          1
                                   No pseudopotential on this center.
   31          1
                                   No pseudopotential on this center.
   32          7
                                   No pseudopotential on this center.
   33          7
                                   No pseudopotential on this center.
   34          7
                                   No pseudopotential on this center.
   35          7
                                   No pseudopotential on this center.
   36          6
                                   No pseudopotential on this center.
   37          1
                                   No pseudopotential on this center.
   38          1
                                   No pseudopotential on this center.
   39          1
                                   No pseudopotential on this center.
   40          6
                                   No pseudopotential on this center.
   41          1
                                   No pseudopotential on this center.
   42          1
                                   No pseudopotential on this center.
   43          1
                                   No pseudopotential on this center.
   44         27           17
                                      F and up 
                                                     2        1.0000000        0.00000000    0.00000000
                                      S - F
                                                     2       23.6600000      283.96056600    0.00000000
                                                     2       10.6100000       47.15684600    0.00000000
                                      P - F
                                                     2       25.0400000      182.21223600    0.00000000
                                                     2       10.4400000       35.23335200    0.00000000
                                      D - F
                                                     2       29.5400000      -26.47533300    0.00000000
                                                     2       10.1800000       -1.82578700    0.00000000
 ======================================================================================================
   441 basis functions,   871 primitive gaussians,   473 cartesian basis functions
    98 alpha electrons       96 beta electrons
       nuclear repulsion energy      2492.3423909025 Hartrees.
 NAtoms=   44 NActive=   44 NUniq=   44 SFac= 1.00D+00 NAtFMM=   60 NAOKFM=F Big=F
 Integral buffers will be    131072 words long.
 Raffenetti 2 integral format.
 Two-electron integral symmetry is turned off.
 Nuclear repulsion after empirical dispersion term =     2492.2831878016 Hartrees.
 One-electron integrals computed using PRISM.
   1 Symmetry operations used in ECPInt.
 ECPInt:  NShTT=   11781 NPrTT=   71406 LenC2=    9532 LenP2D=   32096.
 LDataN:  DoStor=T MaxTD1= 6 Len=  172
 NBasis=   441 RedAO= T EigKep=  3.27D-04  NBF=   441
 NBsUse=   441 1.00D-06 EigRej= -1.00D+00 NBFU=   441
 Initial guess from the checkpoint file:  "b.chk"
 B after Tr=    -0.000000    0.000287    0.000008
         Rot=    1.000000    0.000001   -0.000000    0.000000 Ang=   0.00 deg.
 Initial guess <Sx>= 0.0000 <Sy>= 0.0000 <Sz>= 1.0000 <S**2>= 2.2417 S= 1.0785
 Requested convergence on RMS density matrix=1.00D-08 within  64 cycles.
 Requested convergence on MAX density matrix=1.00D-06.
 Requested convergence on             energy=1.00D-06.
 No special actions if energy rises.
 Restarting incremental Fock formation.
 SCF Done:  E(UPBE1PBE) =  -1212.11653130     A.U. after   34 cycles
            NFock= 34  Conv=0.17D-08     -V/T= 2.0551
 <Sx>= 0.0000 <Sy>= 0.0000 <Sz>= 1.0000 <S**2>= 2.2398 S= 1.0779
 <L.S>=  0.00000000000    
 Annihilation of the first spin contaminant:
 S**2 before annihilation     2.2398,   after     2.0059
 QCSCF skips out because SCF is already converged.

 **********************************************************************

            Population analysis using the SCF Density.

 **********************************************************************

 Alpha  occ. eigenvalues --  -14.45266 -14.45266 -14.44897 -14.44896 -10.27974
 Alpha  occ. eigenvalues --  -10.27974 -10.27388 -10.27387 -10.27315 -10.27314
 Alpha  occ. eigenvalues --  -10.27126 -10.27126 -10.26313 -10.26312 -10.23653
 Alpha  occ. eigenvalues --  -10.23653 -10.23515 -10.23515 -10.23042 -10.23042
 Alpha  occ. eigenvalues --  -10.22952 -10.22952 -10.22238 -10.22154 -10.22142
 Alpha  occ. eigenvalues --  -10.20702  -3.93477  -2.45739  -2.43613  -2.42986
 Alpha  occ. eigenvalues --   -1.05917  -1.05829  -0.97514  -0.97141  -0.88111
 Alpha  occ. eigenvalues --   -0.87725  -0.85429  -0.80613  -0.78959  -0.77711
 Alpha  occ. eigenvalues --   -0.77710  -0.75563  -0.74978  -0.73211  -0.72151
 Alpha  occ. eigenvalues --   -0.66898  -0.65494  -0.64390  -0.64136  -0.62767
 Alpha  occ. eigenvalues --   -0.61471  -0.58849  -0.57647  -0.56664  -0.54002
 Alpha  occ. eigenvalues --   -0.53119  -0.52196  -0.49873  -0.49788  -0.49196
 Alpha  occ. eigenvalues --   -0.48714  -0.48222  -0.47198  -0.46747  -0.45982
 Alpha  occ. eigenvalues --   -0.45723  -0.45335  -0.45052  -0.44886  -0.44325
 Alpha  occ. eigenvalues --   -0.42659  -0.41876  -0.41163  -0.38933  -0.38601
 Alpha  occ. eigenvalues --   -0.38278  -0.37932  -0.37256  -0.37046  -0.37006
 Alpha  occ. eigenvalues --   -0.36451  -0.35000  -0.34528  -0.34042  -0.31936
 Alpha  occ. eigenvalues --   -0.31463  -0.30313  -0.27425  -0.26919  -0.26665
 Alpha  occ. eigenvalues --   -0.26544  -0.25939  -0.24611  -0.23938  -0.22872
 Alpha  occ. eigenvalues --   -0.20636  -0.20262  -0.10368
 Alpha virt. eigenvalues --   -0.06099  -0.02850  -0.00197   0.00096   0.00304
 Alpha virt. eigenvalues --    0.02280   0.02800   0.03916   0.03977   0.05571
 Alpha virt. eigenvalues --    0.06199   0.07878   0.08029   0.09743   0.10224
 Alpha virt. eigenvalues --    0.12627   0.12976   0.13845   0.13885   0.15082
 Alpha virt. eigenvalues --    0.15240   0.15357   0.15952   0.16009   0.16516
 Alpha virt. eigenvalues --    0.16916   0.17838   0.17964   0.18030   0.18375
 Alpha virt. eigenvalues --    0.19465   0.19859   0.19998   0.20038   0.21172
 Alpha virt. eigenvalues --    0.21834   0.22213   0.22966   0.24006   0.25775
 Alpha virt. eigenvalues --    0.25823   0.26131   0.26462   0.27709   0.27862
 Alpha virt. eigenvalues --    0.28139   0.28665   0.30719   0.31115   0.31496
 Alpha virt. eigenvalues --    0.33042   0.33273   0.34092   0.34763   0.36390
 Alpha virt. eigenvalues --    0.37438   0.37719   0.39427   0.39499   0.41284
 Alpha virt. eigenvalues --    0.42073   0.44125   0.44716   0.46226   0.46994
 Alpha virt. eigenvalues --    0.47474   0.49508   0.51360   0.51867   0.51978
 Alpha virt. eigenvalues --    0.53807   0.54021   0.56241   0.56267   0.56423
 Alpha virt. eigenvalues --    0.56918   0.57151   0.57951   0.58499   0.58803
 Alpha virt. eigenvalues --    0.58810   0.59580   0.60387   0.61525   0.61531
 Alpha virt. eigenvalues --    0.61604   0.63063   0.63123   0.63495   0.63508
 Alpha virt. eigenvalues --    0.63521   0.63666   0.64205   0.64372   0.65149
 Alpha virt. eigenvalues --    0.65509   0.66120   0.66388   0.66963   0.67423
 Alpha virt. eigenvalues --    0.68372   0.68418   0.68497   0.71026   0.72084
 Alpha virt. eigenvalues --    0.72286   0.73536   0.75147   0.75607   0.76485
 Alpha virt. eigenvalues --    0.77292   0.78069   0.79731   0.79816   0.81175
 Alpha virt. eigenvalues --    0.81540   0.82443   0.83311   0.83814   0.84125
 Alpha virt. eigenvalues --    0.84631   0.85010   0.86109   0.86616   0.87265
 Alpha virt. eigenvalues --    0.87650   0.88079   0.89977   0.90019   0.90494
 Alpha virt. eigenvalues --    0.91231   0.91631   0.92219   0.92946   0.93486
 Alpha virt. eigenvalues --    0.93697   0.94440   0.95197   0.95556   0.95902
 Alpha virt. eigenvalues --    0.97235   0.97786   0.97852   0.98276   0.98553
 Alpha virt. eigenvalues --    1.00235   1.00360   1.01562   1.02001   1.02422
 Alpha virt. eigenvalues --    1.03336   1.04146   1.06424   1.07116   1.07527
 Alpha virt. eigenvalues --    1.08881   1.09207   1.09734   1.10883   1.13946
 Alpha virt. eigenvalues --    1.15192   1.16120   1.16621   1.18353   1.18801
 Alpha virt. eigenvalues --    1.19393   1.19791   1.23855   1.24218   1.24674
 Alpha virt. eigenvalues --    1.24714   1.26397   1.26636   1.26921   1.29069
 Alpha virt. eigenvalues --    1.29316   1.29833   1.31231   1.33489   1.33876
 Alpha virt. eigenvalues --    1.36160   1.36306   1.36428   1.38739   1.39615
 Alpha virt. eigenvalues --    1.41066   1.41351   1.42567   1.42819   1.44983
 Alpha virt. eigenvalues --    1.45238   1.45645   1.46407   1.47814   1.48325
 Alpha virt. eigenvalues --    1.49483   1.49895   1.50283   1.50301   1.50776
 Alpha virt. eigenvalues --    1.51109   1.52503   1.53865   1.57389   1.57515
 Alpha virt. eigenvalues --    1.59227   1.61162   1.64620   1.65193   1.65839
 Alpha virt. eigenvalues --    1.70080   1.72182   1.72900   1.76056   1.77340
 Alpha virt. eigenvalues --    1.78441   1.80096   1.80343   1.82377   1.82928
 Alpha virt. eigenvalues --    1.85828   1.87004   1.87358   1.87801   1.88174
 Alpha virt. eigenvalues --    1.88574   1.90319   1.91395   1.92186   1.94009
 Alpha virt. eigenvalues --    1.95376   1.95749   1.96688   1.97311   1.97954
 Alpha virt. eigenvalues --    1.98213   1.98824   1.99306   1.99434   1.99713
 Alpha virt. eigenvalues --    2.00436   2.01908   2.03051   2.03570   2.06344
 Alpha virt. eigenvalues --    2.06720   2.06762   2.09358   2.09489   2.12570
 Alpha virt. eigenvalues --    2.12950   2.14270   2.15358   2.15409   2.16266
 Alpha virt. eigenvalues --    2.16678   2.16686   2.19194   2.19767   2.20431
 Alpha virt. eigenvalues --    2.21269   2.21333   2.21385   2.23376   2.24025
 Alpha virt. eigenvalues --    2.24557   2.26271   2.27313   2.27820   2.27929
 Alpha virt. eigenvalues --    2.27999   2.28357   2.28370   2.29035   2.32904
 Alpha virt. eigenvalues --    2.34611   2.38097   2.39963   2.40689   2.40764
 Alpha virt. eigenvalues --    2.42417   2.43882   2.45046   2.46973   2.47122
 Alpha virt. eigenvalues --    2.51759   2.52567   2.57318   2.58896   2.59091
 Alpha virt. eigenvalues --    2.59121   2.60809   2.60915   2.62054   2.64470
 Alpha virt. eigenvalues --    2.64995   2.66649   2.68064   2.69348   2.69833
 Alpha virt. eigenvalues --    2.69865   2.72617   2.74012   2.75751   2.75888
 Alpha virt. eigenvalues --    2.76001   2.77278   2.77863   2.78842   2.80625
 Alpha virt. eigenvalues --    2.83132   2.85820   2.87829   2.88695   2.93081
 Alpha virt. eigenvalues --    2.93170   2.97380   2.97813   2.99485   3.00634
 Alpha virt. eigenvalues --    3.06365   3.07112   3.16283   3.19811   3.20049
 Alpha virt. eigenvalues --    3.29807   3.39971   3.46327   3.47879   3.52220
 Alpha virt. eigenvalues --    3.53409   3.57082   5.55308   5.56610   5.57411
 Alpha virt. eigenvalues --    5.60012   5.61181   5.61337   5.63362  45.70163
 Alpha virt. eigenvalues --   45.86406  45.93221  63.01235
  Beta  occ. eigenvalues --  -14.45130 -14.45130 -14.44873 -14.44873 -10.27731
  Beta  occ. eigenvalues --  -10.27731 -10.27388 -10.27388 -10.27324 -10.27324
  Beta  occ. eigenvalues --  -10.27162 -10.27162 -10.26188 -10.26188 -10.23595
  Beta  occ. eigenvalues --  -10.23595 -10.23496 -10.23496 -10.23050 -10.23050
  Beta  occ. eigenvalues --  -10.22920 -10.22920 -10.22260 -10.22253 -10.22090
  Beta  occ. eigenvalues --  -10.21175  -3.86171  -2.37475  -2.37053  -2.34265
  Beta  occ. eigenvalues --   -1.05704  -1.05611  -0.97322  -0.96923  -0.88083
  Beta  occ. eigenvalues --   -0.87654  -0.85483  -0.80535  -0.78925  -0.77658
  Beta  occ. eigenvalues --   -0.77643  -0.75412  -0.74766  -0.73220  -0.72309
  Beta  occ. eigenvalues --   -0.66931  -0.65362  -0.64129  -0.64101  -0.62733
  Beta  occ. eigenvalues --   -0.61373  -0.58828  -0.57687  -0.56644  -0.53969
  Beta  occ. eigenvalues --   -0.53095  -0.52156  -0.49393  -0.49322  -0.49116
  Beta  occ. eigenvalues --   -0.48719  -0.48363  -0.47173  -0.46683  -0.45946
  Beta  occ. eigenvalues --   -0.45733  -0.45295  -0.44889  -0.44675  -0.44000
  Beta  occ. eigenvalues --   -0.42678  -0.41846  -0.41169  -0.38627  -0.38621
  Beta  occ. eigenvalues --   -0.38352  -0.37234  -0.37143  -0.36671  -0.36647
  Beta  occ. eigenvalues --   -0.36057  -0.35064  -0.33958  -0.33368  -0.31554
  Beta  occ. eigenvalues --   -0.29689  -0.28064  -0.26483  -0.25839  -0.24986
  Beta  occ. eigenvalues --   -0.23860  -0.23783  -0.21884  -0.20378  -0.19865
  Beta  occ. eigenvalues --   -0.19706
  Beta virt. eigenvalues --   -0.04689  -0.04079  -0.00690  -0.00595  -0.00051
  Beta virt. eigenvalues --    0.01286   0.01661   0.02457   0.03609   0.05503
  Beta virt. eigenvalues --    0.05869   0.05948   0.07905   0.09087   0.09330
  Beta virt. eigenvalues --    0.10246   0.10776   0.12712   0.13074   0.13968
  Beta virt. eigenvalues --    0.14173   0.15377   0.15482   0.16008   0.16044
  Beta virt. eigenvalues --    0.16661   0.16796   0.16969   0.17929   0.18172
  Beta virt. eigenvalues --    0.18556   0.18951   0.19609   0.19938   0.20291
  Beta virt. eigenvalues --    0.21703   0.21978   0.22394   0.22913   0.22982
  Beta virt. eigenvalues --    0.24067   0.25879   0.26183   0.26525   0.27260
  Beta virt. eigenvalues --    0.27751   0.28233   0.29160   0.29244   0.31046
  Beta virt. eigenvalues --    0.31403   0.31696   0.33173   0.33299   0.34494
  Beta virt. eigenvalues --    0.34813   0.36513   0.37677   0.38017   0.39518
  Beta virt. eigenvalues --    0.39686   0.41300   0.42514   0.44317   0.45159
  Beta virt. eigenvalues --    0.46415   0.47334   0.47923   0.49826   0.51458
  Beta virt. eigenvalues --    0.52015   0.52034   0.53901   0.54152   0.56282
  Beta virt. eigenvalues --    0.56314   0.56640   0.56980   0.57216   0.58129
  Beta virt. eigenvalues --    0.58635   0.58845   0.59078   0.59635   0.60453
  Beta virt. eigenvalues --    0.61575   0.61683   0.61757   0.63053   0.63284
  Beta virt. eigenvalues --    0.63534   0.63558   0.63699   0.63710   0.64258
  Beta virt. eigenvalues --    0.64391   0.65143   0.65462   0.66226   0.66595
  Beta virt. eigenvalues --    0.67422   0.67710   0.68321   0.68415   0.68707
  Beta virt. eigenvalues --    0.71025   0.72320   0.72378   0.73873   0.75385
  Beta virt. eigenvalues --    0.75640   0.76606   0.77412   0.78575   0.79877
  Beta virt. eigenvalues --    0.80382   0.81371   0.81772   0.82648   0.83387
  Beta virt. eigenvalues --    0.84216   0.84262   0.84687   0.85266   0.86323
  Beta virt. eigenvalues --    0.87090   0.87275   0.87663   0.88092   0.90036
  Beta virt. eigenvalues --    0.90255   0.90552   0.91437   0.91771   0.92300
  Beta virt. eigenvalues --    0.92991   0.93498   0.93743   0.95266   0.95601
  Beta virt. eigenvalues --    0.96331   0.96439   0.97239   0.97877   0.98189
  Beta virt. eigenvalues --    0.98346   0.98556   1.00239   1.00467   1.01640
  Beta virt. eigenvalues --    1.02058   1.02466   1.03389   1.04220   1.06522
  Beta virt. eigenvalues --    1.07168   1.08943   1.08965   1.09737   1.11215
  Beta virt. eigenvalues --    1.14022   1.15293   1.15960   1.16161   1.16645
  Beta virt. eigenvalues --    1.18388   1.18832   1.19427   1.19905   1.23993
  Beta virt. eigenvalues --    1.24427   1.24732   1.24763   1.26576   1.26898
  Beta virt. eigenvalues --    1.27303   1.29270   1.29526   1.30011   1.31241
  Beta virt. eigenvalues --    1.33875   1.34180   1.36436   1.36591   1.36594
  Beta virt. eigenvalues --    1.38903   1.40155   1.41231   1.41600   1.42923
  Beta virt. eigenvalues --    1.43077   1.44988   1.45335   1.45796   1.46580
  Beta virt. eigenvalues --    1.47990   1.48426   1.49664   1.49917   1.50396
  Beta virt. eigenvalues --    1.50413   1.51007   1.51376   1.52974   1.55124
  Beta virt. eigenvalues --    1.57489   1.57671   1.60082   1.61297   1.64982
  Beta virt. eigenvalues --    1.65817   1.66100   1.70165   1.72644   1.73062
  Beta virt. eigenvalues --    1.76245   1.77333   1.78747   1.80304   1.80374
  Beta virt. eigenvalues --    1.82461   1.83028   1.85962   1.87120   1.87420
  Beta virt. eigenvalues --    1.87878   1.88110   1.88604   1.90539   1.91447
  Beta virt. eigenvalues --    1.92262   1.94044   1.95411   1.95800   1.96778
  Beta virt. eigenvalues --    1.97375   1.98021   1.98354   1.99005   1.99369
  Beta virt. eigenvalues --    1.99451   1.99962   2.00476   2.01979   2.03109
  Beta virt. eigenvalues --    2.03604   2.06500   2.06879   2.06919   2.09538
  Beta virt. eigenvalues --    2.09647   2.12646   2.13123   2.14615   2.15438
  Beta virt. eigenvalues --    2.15446   2.16335   2.16734   2.16822   2.19301
  Beta virt. eigenvalues --    2.20049   2.20557   2.21399   2.21409   2.21487
  Beta virt. eigenvalues --    2.23656   2.24470   2.24735   2.26500   2.27544
  Beta virt. eigenvalues --    2.28025   2.28031   2.28055   2.28422   2.28543
  Beta virt. eigenvalues --    2.29195   2.33020   2.35064   2.38274   2.40095
  Beta virt. eigenvalues --    2.40840   2.41037   2.44301   2.44906   2.47170
  Beta virt. eigenvalues --    2.47418   2.48466   2.51839   2.52637   2.57515
  Beta virt. eigenvalues --    2.59106   2.59170   2.59181   2.61002   2.61154
  Beta virt. eigenvalues --    2.62146   2.64680   2.65257   2.66756   2.68387
  Beta virt. eigenvalues --    2.69462   2.69891   2.70035   2.72837   2.75001
  Beta virt. eigenvalues --    2.75880   2.76027   2.76131   2.77707   2.79025
  Beta virt. eigenvalues --    2.80027   2.80693   2.83152   2.86255   2.88091
  Beta virt. eigenvalues --    2.88755   2.93178   2.93954   2.97725   2.97821
  Beta virt. eigenvalues --    2.99588   3.01238   3.06537   3.07350   3.16334
  Beta virt. eigenvalues --    3.20105   3.20270   3.29660   3.40103   3.47049
  Beta virt. eigenvalues --    3.47902   3.52442   3.53324   3.59742   5.61448
  Beta virt. eigenvalues --    5.63335   5.63510   5.63857   5.65160   5.67789
  Beta virt. eigenvalues --    5.69338  45.80631  45.95004  46.00289  63.07613
          Condensed to atoms (all electrons):
               1          2          3          4          5          6
     1  C    5.224429   0.494063  -0.065684  -0.054184  -0.065686   0.494070
     2  C    0.494063   4.579110   0.530369  -0.011372  -0.038420  -0.016587
     3  C   -0.065684   0.530369   5.041806   0.525348  -0.032485  -0.038421
     4  C   -0.054184  -0.011372   0.525348   4.910284   0.525339  -0.011371
     5  C   -0.065686  -0.038420  -0.032485   0.525339   5.041821   0.530371
     6  C    0.494070  -0.016587  -0.038421  -0.011371   0.530371   4.579090
     7  H    0.005795  -0.039116   0.346364  -0.038345   0.003788   0.000663
     8  H    0.001490   0.002603  -0.035924   0.365650  -0.035924   0.002603
     9  H    0.005795   0.000663   0.003788  -0.038345   0.346366  -0.039115
    10  C    0.006780  -0.000022   0.000001   0.000137  -0.005844  -0.048562
    11  C    0.011801   0.002421  -0.000058   0.000051   0.002650  -0.069347
    12  C   -0.000773   0.000001  -0.000000   0.000000   0.000123   0.008086
    13  C    0.000183   0.000001  -0.000001   0.000061   0.002059  -0.004928
    14  C    0.000001  -0.000000   0.000000  -0.000000   0.000002  -0.000033
    15  C    0.000002  -0.000000   0.000000  -0.000001   0.000078   0.000078
    16  H   -0.000031   0.000000   0.000001   0.000115   0.000127   0.000773
    17  C    0.000000   0.000000  -0.000000   0.000000  -0.000001  -0.000002
    18  H   -0.000000   0.000000   0.000000   0.000000  -0.000000   0.000003
    19  H   -0.000000   0.000000  -0.000000   0.000000   0.000002  -0.000003
    20  H    0.000000  -0.000000   0.000000  -0.000000  -0.000000  -0.000000
    21  C    0.006780  -0.048566  -0.005843   0.000137   0.000001  -0.000022
    22  C    0.011801  -0.069348   0.002650   0.000051  -0.000058   0.002421
    23  C   -0.000773   0.008086   0.000123   0.000000  -0.000000   0.000001
    24  C    0.000183  -0.004927   0.002059   0.000061  -0.000001   0.000001
    25  C    0.000001  -0.000033   0.000002  -0.000000   0.000000  -0.000000
    26  C    0.000002   0.000078   0.000078  -0.000001   0.000000  -0.000000
    27  H   -0.000031   0.000773   0.000127   0.000115   0.000001   0.000000
    28  C    0.000000  -0.000002  -0.000001   0.000000  -0.000000   0.000000
    29  H   -0.000000   0.000003  -0.000000   0.000000   0.000000   0.000000
    30  H   -0.000000  -0.000003   0.000002   0.000000  -0.000000   0.000000
    31  H    0.000000  -0.000000  -0.000000  -0.000000   0.000000  -0.000000
    32  N   -0.037642   0.275638  -0.070069   0.004736   0.000192   0.005987
    33  N    0.001333   0.006145  -0.000174   0.000001   0.000000  -0.000036
    34  N   -0.037643   0.005987   0.000192   0.004736  -0.070070   0.275635
    35  N    0.001333  -0.000036   0.000000   0.000001  -0.000174   0.006145
    36  C   -0.000012   0.000000   0.000000  -0.000000   0.000002  -0.000061
    37  H   -0.000000  -0.000000   0.000000   0.000000  -0.000000   0.000004
    38  H   -0.000000  -0.000000   0.000000   0.000000  -0.000000   0.000004
    39  H   -0.000020   0.000001   0.000000  -0.000000   0.000000  -0.000010
    40  C   -0.000012  -0.000061   0.000002  -0.000000   0.000000   0.000000
    41  H   -0.000000   0.000004  -0.000000   0.000000   0.000000  -0.000000
    42  H   -0.000000   0.000004  -0.000000   0.000000   0.000000  -0.000000
    43  H   -0.000020  -0.000010   0.000000  -0.000000   0.000000   0.000001
    44  Co   0.267004  -0.065673   0.003803   0.003463   0.003803  -0.065672
               7          8          9         10         11         12
     1  C    0.005795   0.001490   0.005795   0.006780   0.011801  -0.000773
     2  C   -0.039116   0.002603   0.000663  -0.000022   0.002421   0.000001
     3  C    0.346364  -0.035924   0.003788   0.000001  -0.000058  -0.000000
     4  C   -0.038345   0.365650  -0.038345   0.000137   0.000051   0.000000
     5  C    0.003788  -0.035924   0.346366  -0.005844   0.002650   0.000123
     6  C    0.000663   0.002603  -0.039115  -0.048562  -0.069347   0.008086
     7  H    0.555049  -0.004255  -0.000096  -0.000000  -0.000000   0.000000
     8  H   -0.004255   0.546775  -0.004255  -0.000003   0.000001  -0.000000
     9  H   -0.000096  -0.004255   0.555046   0.000410  -0.000172  -0.000040
    10  C   -0.000000  -0.000003   0.000410   4.640425  -0.068089   0.511429
    11  C   -0.000000   0.000001  -0.000172  -0.068089   4.830022  -0.057116
    12  C    0.000000  -0.000000  -0.000040   0.511429  -0.057116   4.648718
    13  C   -0.000000   0.000002  -0.000079   0.544462   0.004789  -0.057099
    14  C   -0.000000   0.000000   0.000001  -0.048662   0.005780   0.535625
    15  C   -0.000000   0.000000   0.000124  -0.005625  -0.000071  -0.037953
    16  H    0.000000  -0.000010   0.006286  -0.034329  -0.000156   0.003726
    17  C    0.000000  -0.000000   0.000001  -0.039786  -0.000082  -0.008372
    18  H    0.000000  -0.000000  -0.000000   0.003987  -0.000212  -0.037997
    19  H    0.000000   0.000000  -0.000009   0.001934   0.000003   0.000952
    20  H   -0.000000  -0.000000   0.000000   0.000922   0.000003   0.002327
    21  C    0.000411  -0.000003  -0.000000  -0.000000  -0.000007   0.000000
    22  C   -0.000172   0.000001  -0.000000  -0.000007  -0.014522  -0.000002
    23  C   -0.000040  -0.000000   0.000000   0.000000  -0.000002  -0.000000
    24  C   -0.000079   0.000002  -0.000000   0.000000   0.000000  -0.000000
    25  C    0.000001   0.000000  -0.000000  -0.000000   0.000000   0.000000
    26  C    0.000124   0.000000  -0.000000  -0.000000  -0.000000  -0.000000
    27  H    0.006286  -0.000010   0.000000   0.000000   0.000000  -0.000000
    28  C    0.000001  -0.000000   0.000000   0.000000  -0.000000  -0.000000
    29  H   -0.000000  -0.000000   0.000000   0.000000   0.000000  -0.000000
    30  H   -0.000009   0.000000   0.000000   0.000000   0.000000   0.000000
    31  H    0.000000  -0.000000  -0.000000   0.000000   0.000000   0.000000
    32  N   -0.004100  -0.000109   0.000007   0.000000   0.000269   0.000000
    33  N    0.000002  -0.000000  -0.000000   0.000000   0.000023   0.000000
    34  N    0.000007  -0.000109  -0.004100   0.257308   0.343518  -0.037937
    35  N   -0.000000  -0.000000   0.000002  -0.045652   0.307673   0.274481
    36  C   -0.000000   0.000000  -0.000000   0.005824  -0.042913  -0.048183
    37  H    0.000000  -0.000000   0.000000  -0.000142   0.000733  -0.001272
    38  H    0.000000  -0.000000   0.000000  -0.000142   0.000727  -0.001269
    39  H    0.000000   0.000000   0.000000   0.000022  -0.000459   0.002593
    40  C   -0.000000   0.000000  -0.000000   0.000000   0.000016   0.000000
    41  H    0.000000  -0.000000   0.000000  -0.000000  -0.000000  -0.000000
    42  H    0.000000  -0.000000   0.000000  -0.000000  -0.000000  -0.000000
    43  H    0.000000   0.000000   0.000000  -0.000000  -0.000002  -0.000000
    44  Co  -0.000616   0.000121  -0.000616   0.008264   0.380660   0.004435
              13         14         15         16         17         18
     1  C    0.000183   0.000001   0.000002  -0.000031   0.000000  -0.000000
     2  C    0.000001  -0.000000  -0.000000   0.000000   0.000000   0.000000
     3  C   -0.000001   0.000000   0.000000   0.000001  -0.000000   0.000000
     4  C    0.000061  -0.000000  -0.000001   0.000115   0.000000   0.000000
     5  C    0.002059   0.000002   0.000078   0.000127  -0.000001  -0.000000
     6  C   -0.004928  -0.000033   0.000078   0.000773  -0.000002   0.000003
     7  H   -0.000000  -0.000000  -0.000000   0.000000   0.000000   0.000000
     8  H    0.000002   0.000000   0.000000  -0.000010  -0.000000  -0.000000
     9  H   -0.000079   0.000001   0.000124   0.006286   0.000001  -0.000000
    10  C    0.544462  -0.048662  -0.005625  -0.034329  -0.039786   0.003987
    11  C    0.004789   0.005780  -0.000071  -0.000156  -0.000082  -0.000212
    12  C   -0.057099   0.535625  -0.037953   0.003726  -0.008372  -0.037997
    13  C    5.027848  -0.044652   0.505768   0.355177  -0.036797   0.000299
    14  C   -0.044652   5.041543  -0.037391   0.000448   0.512937   0.362301
    15  C    0.505768  -0.037391   4.898048  -0.035335   0.561455   0.003838
    16  H    0.355177   0.000448  -0.035335   0.517082   0.003679   0.000013
    17  C   -0.036797   0.512937   0.561455   0.003679   4.887384  -0.035276
    18  H    0.000299   0.362301   0.003838   0.000013  -0.035276   0.536146
    19  H   -0.036020   0.003934   0.368676  -0.003983  -0.035919  -0.000144
    20  H    0.004077  -0.037205  -0.036537  -0.000149   0.368628  -0.004162
    21  C    0.000000  -0.000000  -0.000000   0.000000   0.000000   0.000000
    22  C    0.000000   0.000000  -0.000000   0.000000  -0.000000   0.000000
    23  C   -0.000000   0.000000  -0.000000  -0.000000  -0.000000  -0.000000
    24  C    0.000000   0.000000  -0.000000   0.000000   0.000000   0.000000
    25  C    0.000000  -0.000000   0.000000  -0.000000  -0.000000   0.000000
    26  C   -0.000000   0.000000  -0.000000  -0.000000   0.000000   0.000000
    27  H    0.000000  -0.000000  -0.000000   0.000000   0.000000  -0.000000
    28  C    0.000000  -0.000000   0.000000   0.000000   0.000000   0.000000
    29  H    0.000000   0.000000   0.000000  -0.000000   0.000000  -0.000000
    30  H   -0.000000  -0.000000   0.000000  -0.000000   0.000000   0.000000
    31  H   -0.000000   0.000000   0.000000  -0.000000   0.000000   0.000000
    32  N   -0.000000  -0.000000   0.000000   0.000000   0.000000  -0.000000
    33  N    0.000000  -0.000000   0.000000   0.000000   0.000000  -0.000000
    34  N   -0.079247   0.009244   0.005265  -0.005180  -0.000164  -0.000095
    35  N    0.009322  -0.085542  -0.000156  -0.000095   0.005443  -0.007458
    36  C   -0.000114  -0.003148   0.000009   0.000003  -0.000117   0.004313
    37  H   -0.000009   0.002816  -0.000002  -0.000000  -0.000008   0.000529
    38  H   -0.000009   0.002814  -0.000002  -0.000000  -0.000008   0.000528
    39  H    0.000006   0.000017  -0.000000  -0.000000   0.000001  -0.000033
    40  C    0.000000   0.000000  -0.000000   0.000000   0.000000  -0.000000
    41  H    0.000000   0.000000  -0.000000   0.000000  -0.000000  -0.000000
    42  H    0.000000   0.000000  -0.000000   0.000000  -0.000000  -0.000000
    43  H    0.000000   0.000000  -0.000000   0.000000  -0.000000   0.000000
    44  Co  -0.000517  -0.000535  -0.000014   0.000054   0.000014   0.000021
              19         20         21         22         23         24
     1  C   -0.000000   0.000000   0.006780   0.011801  -0.000773   0.000183
     2  C    0.000000  -0.000000  -0.048566  -0.069348   0.008086  -0.004927
     3  C   -0.000000   0.000000  -0.005843   0.002650   0.000123   0.002059
     4  C    0.000000  -0.000000   0.000137   0.000051   0.000000   0.000061
     5  C    0.000002  -0.000000   0.000001  -0.000058  -0.000000  -0.000001
     6  C   -0.000003  -0.000000  -0.000022   0.002421   0.000001   0.000001
     7  H    0.000000  -0.000000   0.000411  -0.000172  -0.000040  -0.000079
     8  H    0.000000  -0.000000  -0.000003   0.000001  -0.000000   0.000002
     9  H   -0.000009   0.000000  -0.000000  -0.000000   0.000000  -0.000000
    10  C    0.001934   0.000922  -0.000000  -0.000007   0.000000   0.000000
    11  C    0.000003   0.000003  -0.000007  -0.014522  -0.000002   0.000000
    12  C    0.000952   0.002327   0.000000  -0.000002  -0.000000  -0.000000
    13  C   -0.036020   0.004077   0.000000   0.000000  -0.000000   0.000000
    14  C    0.003934  -0.037205  -0.000000   0.000000   0.000000   0.000000
    15  C    0.368676  -0.036537  -0.000000  -0.000000  -0.000000  -0.000000
    16  H   -0.003983  -0.000149   0.000000   0.000000  -0.000000   0.000000
    17  C   -0.035919   0.368628   0.000000  -0.000000  -0.000000   0.000000
    18  H   -0.000144  -0.004162   0.000000   0.000000  -0.000000   0.000000
    19  H    0.534600  -0.004667   0.000000   0.000000   0.000000  -0.000000
    20  H   -0.004667   0.538253   0.000000   0.000000   0.000000  -0.000000
    21  C    0.000000   0.000000   4.640487  -0.068093   0.511426   0.544453
    22  C    0.000000   0.000000  -0.068093   4.830027  -0.057111   0.004789
    23  C    0.000000   0.000000   0.511426  -0.057111   4.648664  -0.057093
    24  C   -0.000000  -0.000000   0.544453   0.004789  -0.057093   5.027805
    25  C   -0.000000   0.000000  -0.048666   0.005780   0.535635  -0.044651
    26  C    0.000000   0.000000  -0.005628  -0.000071  -0.037953   0.505783
    27  H   -0.000000  -0.000000  -0.034332  -0.000156   0.003726   0.355180
    28  C    0.000000   0.000000  -0.039786  -0.000082  -0.008369  -0.036799
    29  H    0.000000   0.000000   0.003987  -0.000212  -0.037996   0.000299
    30  H    0.000000   0.000000   0.001934   0.000003   0.000952  -0.036022
    31  H    0.000000   0.000000   0.000922   0.000003   0.002326   0.004077
    32  N    0.000000   0.000000   0.257314   0.343513  -0.037939  -0.079239
    33  N   -0.000000  -0.000000  -0.045652   0.307673   0.274478   0.009321
    34  N   -0.000094   0.000003   0.000000   0.000269   0.000000  -0.000000
    35  N    0.000004  -0.000102   0.000000   0.000023   0.000000   0.000000
    36  C   -0.000000  -0.000002   0.000000   0.000016   0.000000   0.000000
    37  H   -0.000000  -0.000000  -0.000000  -0.000000  -0.000000   0.000000
    38  H   -0.000000  -0.000000  -0.000000  -0.000000  -0.000000   0.000000
    39  H   -0.000000  -0.000000  -0.000000  -0.000002  -0.000000   0.000000
    40  C    0.000000  -0.000000   0.005825  -0.042913  -0.048182  -0.000114
    41  H   -0.000000   0.000000  -0.000142   0.000727  -0.001269  -0.000009
    42  H   -0.000000   0.000000  -0.000142   0.000734  -0.001273  -0.000009
    43  H    0.000000   0.000000   0.000022  -0.000459   0.002593   0.000006
    44  Co   0.000016  -0.000004   0.008264   0.380662   0.004435  -0.000517
              25         26         27         28         29         30
     1  C    0.000001   0.000002  -0.000031   0.000000  -0.000000  -0.000000
     2  C   -0.000033   0.000078   0.000773  -0.000002   0.000003  -0.000003
     3  C    0.000002   0.000078   0.000127  -0.000001  -0.000000   0.000002
     4  C   -0.000000  -0.000001   0.000115   0.000000   0.000000   0.000000
     5  C    0.000000   0.000000   0.000001  -0.000000   0.000000  -0.000000
     6  C   -0.000000  -0.000000   0.000000   0.000000   0.000000   0.000000
     7  H    0.000001   0.000124   0.006286   0.000001  -0.000000  -0.000009
     8  H    0.000000   0.000000  -0.000010  -0.000000  -0.000000   0.000000
     9  H   -0.000000  -0.000000   0.000000   0.000000   0.000000   0.000000
    10  C   -0.000000  -0.000000   0.000000   0.000000   0.000000   0.000000
    11  C    0.000000  -0.000000   0.000000  -0.000000   0.000000   0.000000
    12  C    0.000000  -0.000000  -0.000000  -0.000000  -0.000000   0.000000
    13  C    0.000000  -0.000000   0.000000   0.000000   0.000000  -0.000000
    14  C   -0.000000   0.000000  -0.000000  -0.000000   0.000000  -0.000000
    15  C    0.000000  -0.000000  -0.000000   0.000000   0.000000   0.000000
    16  H   -0.000000  -0.000000   0.000000   0.000000  -0.000000  -0.000000
    17  C   -0.000000   0.000000   0.000000   0.000000   0.000000   0.000000
    18  H    0.000000   0.000000  -0.000000   0.000000  -0.000000   0.000000
    19  H   -0.000000   0.000000  -0.000000   0.000000   0.000000   0.000000
    20  H    0.000000   0.000000  -0.000000   0.000000   0.000000   0.000000
    21  C   -0.048666  -0.005628  -0.034332  -0.039786   0.003987   0.001934
    22  C    0.005780  -0.000071  -0.000156  -0.000082  -0.000212   0.000003
    23  C    0.535635  -0.037953   0.003726  -0.008369  -0.037996   0.000952
    24  C   -0.044651   0.505783   0.355180  -0.036799   0.000299  -0.036022
    25  C    5.041582  -0.037390   0.000448   0.512921   0.362299   0.003934
    26  C   -0.037390   4.898036  -0.035336   0.561456   0.003838   0.368673
    27  H    0.000448  -0.035336   0.517083   0.003679   0.000013  -0.003983
    28  C    0.512921   0.561456   0.003679   4.887395  -0.035275  -0.035920
    29  H    0.362299   0.003838   0.000013  -0.035275   0.536145  -0.000144
    30  H    0.003934   0.368673  -0.003983  -0.035920  -0.000144   0.534608
    31  H   -0.037203  -0.036536  -0.000149   0.368631  -0.004161  -0.004667
    32  N    0.009245   0.005265  -0.005179  -0.000164  -0.000095  -0.000094
    33  N   -0.085550  -0.000156  -0.000095   0.005443  -0.007458   0.000004
    34  N   -0.000000   0.000000   0.000000   0.000000  -0.000000   0.000000
    35  N   -0.000000   0.000000   0.000000   0.000000  -0.000000  -0.000000
    36  C    0.000000  -0.000000   0.000000   0.000000  -0.000000   0.000000
    37  H    0.000000  -0.000000   0.000000  -0.000000  -0.000000  -0.000000
    38  H    0.000000  -0.000000   0.000000  -0.000000  -0.000000  -0.000000
    39  H    0.000000  -0.000000   0.000000  -0.000000   0.000000   0.000000
    40  C   -0.003148   0.000009   0.000003  -0.000117   0.004314  -0.000000
    41  H    0.002814  -0.000002  -0.000000  -0.000008   0.000528  -0.000000
    42  H    0.002817  -0.000002  -0.000000  -0.000008   0.000529  -0.000000
    43  H    0.000017  -0.000000  -0.000000   0.000001  -0.000033  -0.000000
    44  Co  -0.000535  -0.000014   0.000054   0.000014   0.000021   0.000016
              31         32         33         34         35         36
     1  C    0.000000  -0.037642   0.001333  -0.037643   0.001333  -0.000012
     2  C   -0.000000   0.275638   0.006145   0.005987  -0.000036   0.000000
     3  C   -0.000000  -0.070069  -0.000174   0.000192   0.000000   0.000000
     4  C   -0.000000   0.004736   0.000001   0.004736   0.000001  -0.000000
     5  C    0.000000   0.000192   0.000000  -0.070070  -0.000174   0.000002
     6  C   -0.000000   0.005987  -0.000036   0.275635   0.006145  -0.000061
     7  H    0.000000  -0.004100   0.000002   0.000007  -0.000000  -0.000000
     8  H   -0.000000  -0.000109  -0.000000  -0.000109  -0.000000   0.000000
     9  H   -0.000000   0.000007  -0.000000  -0.004100   0.000002  -0.000000
    10  C    0.000000   0.000000   0.000000   0.257308  -0.045652   0.005824
    11  C    0.000000   0.000269   0.000023   0.343518   0.307673  -0.042913
    12  C    0.000000   0.000000   0.000000  -0.037937   0.274481  -0.048183
    13  C   -0.000000  -0.000000   0.000000  -0.079247   0.009322  -0.000114
    14  C    0.000000  -0.000000  -0.000000   0.009244  -0.085542  -0.003148
    15  C    0.000000   0.000000   0.000000   0.005265  -0.000156   0.000009
    16  H   -0.000000   0.000000   0.000000  -0.005180  -0.000095   0.000003
    17  C    0.000000   0.000000   0.000000  -0.000164   0.005443  -0.000117
    18  H    0.000000  -0.000000  -0.000000  -0.000095  -0.007458   0.004313
    19  H    0.000000   0.000000  -0.000000  -0.000094   0.000004  -0.000000
    20  H    0.000000   0.000000  -0.000000   0.000003  -0.000102  -0.000002
    21  C    0.000922   0.257314  -0.045652   0.000000   0.000000   0.000000
    22  C    0.000003   0.343513   0.307673   0.000269   0.000023   0.000016
    23  C    0.002326  -0.037939   0.274478   0.000000   0.000000   0.000000
    24  C    0.004077  -0.079239   0.009321  -0.000000   0.000000   0.000000
    25  C   -0.037203   0.009245  -0.085550  -0.000000  -0.000000   0.000000
    26  C   -0.036536   0.005265  -0.000156   0.000000   0.000000  -0.000000
    27  H   -0.000149  -0.005179  -0.000095   0.000000   0.000000   0.000000
    28  C    0.368631  -0.000164   0.005443   0.000000   0.000000   0.000000
    29  H   -0.004161  -0.000095  -0.007458  -0.000000  -0.000000  -0.000000
    30  H   -0.004667  -0.000094   0.000004   0.000000  -0.000000   0.000000
    31  H    0.538245   0.000003  -0.000102   0.000000  -0.000000  -0.000000
    32  N    0.000003   7.186283  -0.056662  -0.000081   0.000001  -0.000000
    33  N   -0.000102  -0.056662   7.048857   0.000001  -0.000000  -0.000000
    34  N    0.000000  -0.000081   0.000001   7.186318  -0.056664   0.004494
    35  N   -0.000000   0.000001  -0.000000  -0.056664   7.048836   0.301575
    36  C   -0.000000  -0.000000  -0.000000   0.004494   0.301575   5.052156
    37  H    0.000000   0.000000  -0.000000  -0.000067  -0.042772   0.377578
    38  H    0.000000   0.000000  -0.000000  -0.000067  -0.042774   0.377586
    39  H    0.000000  -0.000000   0.000001   0.000147  -0.032265   0.376809
    40  C   -0.000002   0.004494   0.301574  -0.000000  -0.000000   0.000000
    41  H   -0.000000  -0.000067  -0.042774   0.000000  -0.000000  -0.000000
    42  H   -0.000000  -0.000067  -0.042772   0.000000  -0.000000  -0.000000
    43  H   -0.000000   0.000147  -0.032265  -0.000000   0.000001  -0.000001
    44  Co  -0.000004  -0.078639  -0.054042  -0.078641  -0.054041  -0.003193
              37         38         39         40         41         42
     1  C   -0.000000  -0.000000  -0.000020  -0.000012  -0.000000  -0.000000
     2  C   -0.000000  -0.000000   0.000001  -0.000061   0.000004   0.000004
     3  C    0.000000   0.000000   0.000000   0.000002  -0.000000  -0.000000
     4  C    0.000000   0.000000  -0.000000  -0.000000   0.000000   0.000000
     5  C   -0.000000  -0.000000   0.000000   0.000000   0.000000   0.000000
     6  C    0.000004   0.000004  -0.000010   0.000000  -0.000000  -0.000000
     7  H    0.000000   0.000000   0.000000  -0.000000   0.000000   0.000000
     8  H   -0.000000  -0.000000   0.000000   0.000000  -0.000000  -0.000000
     9  H    0.000000   0.000000   0.000000  -0.000000   0.000000   0.000000
    10  C   -0.000142  -0.000142   0.000022   0.000000  -0.000000  -0.000000
    11  C    0.000733   0.000727  -0.000459   0.000016  -0.000000  -0.000000
    12  C   -0.001272  -0.001269   0.002593   0.000000  -0.000000  -0.000000
    13  C   -0.000009  -0.000009   0.000006   0.000000   0.000000   0.000000
    14  C    0.002816   0.002814   0.000017   0.000000   0.000000   0.000000
    15  C   -0.000002  -0.000002  -0.000000  -0.000000  -0.000000  -0.000000
    16  H   -0.000000  -0.000000  -0.000000   0.000000   0.000000   0.000000
    17  C   -0.000008  -0.000008   0.000001   0.000000  -0.000000  -0.000000
    18  H    0.000529   0.000528  -0.000033  -0.000000  -0.000000  -0.000000
    19  H   -0.000000  -0.000000  -0.000000   0.000000  -0.000000  -0.000000
    20  H   -0.000000  -0.000000  -0.000000  -0.000000   0.000000   0.000000
    21  C   -0.000000  -0.000000  -0.000000   0.005825  -0.000142  -0.000142
    22  C   -0.000000  -0.000000  -0.000002  -0.042913   0.000727   0.000734
    23  C   -0.000000  -0.000000  -0.000000  -0.048182  -0.001269  -0.001273
    24  C    0.000000   0.000000   0.000000  -0.000114  -0.000009  -0.000009
    25  C    0.000000   0.000000   0.000000  -0.003148   0.002814   0.002817
    26  C   -0.000000  -0.000000  -0.000000   0.000009  -0.000002  -0.000002
    27  H    0.000000   0.000000   0.000000   0.000003  -0.000000  -0.000000
    28  C   -0.000000  -0.000000  -0.000000  -0.000117  -0.000008  -0.000008
    29  H   -0.000000  -0.000000   0.000000   0.004314   0.000528   0.000529
    30  H   -0.000000  -0.000000   0.000000  -0.000000  -0.000000  -0.000000
    31  H    0.000000   0.000000   0.000000  -0.000002  -0.000000  -0.000000
    32  N    0.000000   0.000000  -0.000000   0.004494  -0.000067  -0.000067
    33  N   -0.000000  -0.000000   0.000001   0.301574  -0.042774  -0.042772
    34  N   -0.000067  -0.000067   0.000147  -0.000000   0.000000   0.000000
    35  N   -0.042772  -0.042774  -0.032265  -0.000000  -0.000000  -0.000000
    36  C    0.377578   0.377586   0.376809   0.000000  -0.000000  -0.000000
    37  H    0.526111  -0.040386  -0.025877  -0.000000  -0.000000   0.000000
    38  H   -0.040386   0.526116  -0.025890  -0.000000   0.000000  -0.000000
    39  H   -0.025877  -0.025890   0.481168  -0.000001   0.000000   0.000000
    40  C   -0.000000  -0.000000  -0.000001   5.052153   0.377586   0.377579
    41  H   -0.000000   0.000000   0.000000   0.377586   0.526116  -0.040386
    42  H    0.000000  -0.000000   0.000000   0.377579  -0.040386   0.526110
    43  H    0.000000   0.000000  -0.000023   0.376809  -0.025890  -0.025877
    44  Co   0.000995   0.000996   0.007558  -0.003193   0.000997   0.000994
              43         44
     1  C   -0.000020   0.267004
     2  C   -0.000010  -0.065673
     3  C    0.000000   0.003803
     4  C   -0.000000   0.003463
     5  C    0.000000   0.003803
     6  C    0.000001  -0.065672
     7  H    0.000000  -0.000616
     8  H    0.000000   0.000121
     9  H    0.000000  -0.000616
    10  C   -0.000000   0.008264
    11  C   -0.000002   0.380660
    12  C   -0.000000   0.004435
    13  C    0.000000  -0.000517
    14  C    0.000000  -0.000535
    15  C   -0.000000  -0.000014
    16  H    0.000000   0.000054
    17  C   -0.000000   0.000014
    18  H    0.000000   0.000021
    19  H    0.000000   0.000016
    20  H    0.000000  -0.000004
    21  C    0.000022   0.008264
    22  C   -0.000459   0.380662
    23  C    0.002593   0.004435
    24  C    0.000006  -0.000517
    25  C    0.000017  -0.000535
    26  C   -0.000000  -0.000014
    27  H   -0.000000   0.000054
    28  C    0.000001   0.000014
    29  H   -0.000033   0.000021
    30  H   -0.000000   0.000016
    31  H   -0.000000  -0.000004
    32  N    0.000147  -0.078639
    33  N   -0.032265  -0.054042
    34  N   -0.000000  -0.078641
    35  N    0.000001  -0.054041
    36  C   -0.000001  -0.003193
    37  H    0.000000   0.000995
    38  H    0.000000   0.000996
    39  H   -0.000023   0.007558
    40  C    0.376809  -0.003193
    41  H   -0.025890   0.000997
    42  H   -0.025877   0.000994
    43  H    0.481170   0.007558
    44  Co   0.007558  16.315658
          Atomic-Atomic Spin Densities.
               1          2          3          4          5          6
     1  C   -0.312817  -0.006576   0.004776   0.006333   0.004776  -0.006576
     2  C   -0.006576   0.093976   0.004306  -0.003014   0.001075   0.001842
     3  C    0.004776   0.004306  -0.078522  -0.005154   0.000258   0.001075
     4  C    0.006333  -0.003014  -0.005154   0.104860  -0.005154  -0.003014
     5  C    0.004776   0.001075   0.000258  -0.005154  -0.078524   0.004306
     6  C   -0.006576   0.001842   0.001075  -0.003014   0.004306   0.093969
     7  H   -0.000708   0.000261   0.003642   0.001332  -0.000022  -0.000079
     8  H   -0.000133  -0.000000   0.000027   0.000354   0.000027  -0.000000
     9  H   -0.000708  -0.000079  -0.000022   0.001332   0.003642   0.000261
    10  C   -0.000273  -0.000018   0.000001   0.000019   0.000386  -0.000058
    11  C    0.005514  -0.000873   0.000004   0.000029  -0.000193  -0.006624
    12  C    0.000065   0.000000   0.000000  -0.000000  -0.000010   0.000008
    13  C    0.000015   0.000000  -0.000000   0.000003  -0.000259  -0.000363
    14  C    0.000000   0.000000  -0.000000   0.000000  -0.000001  -0.000019
    15  C   -0.000000   0.000000   0.000000  -0.000000   0.000002   0.000008
    16  H   -0.000001  -0.000000  -0.000000   0.000002   0.000067   0.000056
    17  C   -0.000000  -0.000000   0.000000  -0.000000   0.000000   0.000002
    18  H    0.000000  -0.000000  -0.000000   0.000000   0.000000   0.000000
    19  H    0.000000   0.000000  -0.000000  -0.000000   0.000000   0.000000
    20  H    0.000000   0.000000  -0.000000  -0.000000  -0.000000  -0.000000
    21  C   -0.000273  -0.000058   0.000386   0.000019   0.000001  -0.000018
    22  C    0.005514  -0.006625  -0.000193   0.000029   0.000004  -0.000873
    23  C    0.000065   0.000008  -0.000010  -0.000000   0.000000   0.000000
    24  C    0.000015  -0.000363  -0.000259   0.000003  -0.000000   0.000000
    25  C    0.000000  -0.000019  -0.000001   0.000000  -0.000000   0.000000
    26  C   -0.000000   0.000008   0.000002  -0.000000   0.000000   0.000000
    27  H   -0.000001   0.000056   0.000067   0.000002  -0.000000  -0.000000
    28  C   -0.000000   0.000002   0.000000  -0.000000   0.000000  -0.000000
    29  H    0.000000   0.000000   0.000000   0.000000  -0.000000  -0.000000
    30  H    0.000000   0.000000   0.000000  -0.000000  -0.000000   0.000000
    31  H    0.000000  -0.000000  -0.000000  -0.000000  -0.000000   0.000000
    32  N    0.001370   0.011457   0.003736   0.000072   0.000033  -0.000115
    33  N   -0.000627   0.000418  -0.000013  -0.000000  -0.000000   0.000003
    34  N    0.001370  -0.000115   0.000033   0.000072   0.003737   0.011457
    35  N   -0.000627   0.000003  -0.000000  -0.000000  -0.000013   0.000418
    36  C   -0.000016   0.000000  -0.000000  -0.000000  -0.000000  -0.000004
    37  H    0.000000  -0.000000  -0.000000   0.000000  -0.000000  -0.000001
    38  H    0.000000  -0.000000  -0.000000   0.000000  -0.000000  -0.000001
    39  H    0.000012  -0.000000   0.000000   0.000000   0.000000  -0.000000
    40  C   -0.000016  -0.000004  -0.000000  -0.000000  -0.000000   0.000000
    41  H    0.000000  -0.000001  -0.000000   0.000000  -0.000000  -0.000000
    42  H    0.000000  -0.000001  -0.000000   0.000000  -0.000000  -0.000000
    43  H    0.000012  -0.000000   0.000000   0.000000   0.000000  -0.000000
    44  Co   0.020065  -0.010659  -0.001760   0.001166  -0.001760  -0.010659
               7          8          9         10         11         12
     1  C   -0.000708  -0.000133  -0.000708  -0.000273   0.005514   0.000065
     2  C    0.000261  -0.000000  -0.000079  -0.000018  -0.000873   0.000000
     3  C    0.003642   0.000027  -0.000022   0.000001   0.000004   0.000000
     4  C    0.001332   0.000354   0.001332   0.000019   0.000029  -0.000000
     5  C   -0.000022   0.000027   0.003642   0.000386  -0.000193  -0.000010
     6  C   -0.000079  -0.000000   0.000261  -0.000058  -0.006624   0.000008
     7  H   -0.006166  -0.000124  -0.000018  -0.000000   0.000000  -0.000000
     8  H   -0.000124  -0.005112  -0.000124  -0.000000   0.000000   0.000000
     9  H   -0.000018  -0.000124  -0.006166  -0.000120   0.000016   0.000001
    10  C   -0.000000  -0.000000  -0.000120  -0.002838   0.001805  -0.001924
    11  C    0.000000   0.000000   0.000016   0.001805   0.216844  -0.002146
    12  C   -0.000000   0.000000   0.000001  -0.001924  -0.002146  -0.027924
    13  C    0.000000   0.000000   0.000144   0.004461   0.000262   0.000614
    14  C    0.000000   0.000000   0.000000   0.000878   0.000558  -0.000378
    15  C    0.000000   0.000000   0.000005  -0.000811  -0.000027   0.000208
    16  H   -0.000000  -0.000000  -0.000146  -0.000166  -0.000000  -0.000006
    17  C   -0.000000  -0.000000  -0.000000   0.000128  -0.000013  -0.000216
    18  H   -0.000000  -0.000000  -0.000000  -0.000010  -0.000002  -0.000066
    19  H   -0.000000  -0.000000  -0.000000   0.000003  -0.000000  -0.000007
    20  H    0.000000   0.000000   0.000000  -0.000004   0.000000   0.000014
    21  C   -0.000120  -0.000000  -0.000000  -0.000000   0.000001  -0.000000
    22  C    0.000016   0.000000   0.000000   0.000001   0.001823   0.000000
    23  C    0.000001   0.000000  -0.000000  -0.000000   0.000000   0.000000
    24  C    0.000144   0.000000   0.000000   0.000000   0.000000   0.000000
    25  C    0.000000   0.000000   0.000000   0.000000   0.000000   0.000000
    26  C    0.000005   0.000000   0.000000  -0.000000  -0.000000   0.000000
    27  H   -0.000146  -0.000000  -0.000000  -0.000000   0.000000  -0.000000
    28  C   -0.000000  -0.000000  -0.000000  -0.000000  -0.000000   0.000000
    29  H   -0.000000  -0.000000  -0.000000   0.000000   0.000000  -0.000000
    30  H   -0.000000  -0.000000  -0.000000  -0.000000  -0.000000   0.000000
    31  H    0.000000   0.000000   0.000000   0.000000  -0.000000  -0.000000
    32  N   -0.000511  -0.000002  -0.000002  -0.000000  -0.000048  -0.000000
    33  N    0.000002   0.000000   0.000000   0.000000  -0.000004   0.000000
    34  N   -0.000002  -0.000002  -0.000511  -0.001293  -0.030537   0.001524
    35  N    0.000000   0.000000   0.000002  -0.000935  -0.043267   0.008111
    36  C    0.000000   0.000000   0.000000  -0.000034   0.000764   0.000361
    37  H   -0.000000  -0.000000  -0.000000   0.000004   0.000471  -0.000155
    38  H   -0.000000  -0.000000  -0.000000   0.000004   0.000472  -0.000155
    39  H   -0.000000  -0.000000  -0.000000   0.000001  -0.000648  -0.000054
    40  C    0.000000   0.000000   0.000000   0.000000  -0.000000  -0.000000
    41  H   -0.000000  -0.000000  -0.000000   0.000000   0.000000  -0.000000
    42  H   -0.000000  -0.000000  -0.000000   0.000000   0.000000  -0.000000
    43  H   -0.000000  -0.000000  -0.000000  -0.000000   0.000001   0.000000
    44  Co   0.000343   0.000039   0.000343   0.001429   0.059210   0.000101
              13         14         15         16         17         18
     1  C    0.000015   0.000000  -0.000000  -0.000001  -0.000000   0.000000
     2  C    0.000000   0.000000   0.000000  -0.000000  -0.000000  -0.000000
     3  C   -0.000000  -0.000000   0.000000  -0.000000   0.000000  -0.000000
     4  C    0.000003   0.000000  -0.000000   0.000002  -0.000000   0.000000
     5  C   -0.000259  -0.000001   0.000002   0.000067   0.000000   0.000000
     6  C   -0.000363  -0.000019   0.000008   0.000056   0.000002   0.000000
     7  H    0.000000   0.000000   0.000000  -0.000000  -0.000000  -0.000000
     8  H    0.000000   0.000000   0.000000  -0.000000  -0.000000  -0.000000
     9  H    0.000144   0.000000   0.000005  -0.000146  -0.000000  -0.000000
    10  C    0.004461   0.000878  -0.000811  -0.000166   0.000128  -0.000010
    11  C    0.000262   0.000558  -0.000027  -0.000000  -0.000013  -0.000002
    12  C    0.000614  -0.000378   0.000208  -0.000006  -0.000216  -0.000066
    13  C    0.016142   0.000897  -0.008755   0.000220  -0.001041  -0.000005
    14  C    0.000897   0.050522  -0.002023  -0.000001  -0.005960   0.000057
    15  C   -0.008755  -0.002023   0.030125   0.000002   0.005430  -0.000003
[...]
              Bcc     0.0090     1.204     0.430     0.402  0.7629  0.6465 -0.0001
 
              Baa    -0.0040    -2.131    -0.760    -0.711 -0.0285  0.3454  0.9380
    41 H(1)   Bbb    -0.0025    -1.352    -0.483    -0.451 -0.6651  0.6940 -0.2757
              Bcc     0.0065     3.483     1.243     1.162  0.7462  0.6317 -0.2099
 
              Baa    -0.0040    -2.130    -0.760    -0.711  0.0288 -0.3456  0.9380
    42 H(1)   Bbb    -0.0025    -1.352    -0.482    -0.451 -0.6650  0.6939  0.2761
              Bcc     0.0065     3.482     1.243     1.162  0.7463  0.6317  0.2098
 
              Baa    -0.0076    -4.044    -1.443    -1.349  0.0004 -0.0003  1.0000
    43 H(1)   Bbb    -0.0062    -3.318    -1.184    -1.107  0.7650 -0.6440 -0.0005
              Bcc     0.0138     7.362     2.627     2.456  0.6440  0.7650  0.0000
 
              Baa    -1.1109  -140.278   -50.055   -46.792  1.0000  0.0000  0.0000
    44 Co(59) Bbb     0.1362    17.194     6.135     5.735 -0.0000  1.0000 -0.0001
              Bcc     0.9747   123.084    43.920    41.057 -0.0000  0.0001  1.0000
 

 ---------------------------------------------------------------------------------

   1 Symmetry operations used in ECPInt.
 ECPInt:  NShTT=   11781 NPrTT=   71406 LenC2=    9532 LenP2D=   32096.
 LDataN:  DoStor=T MaxTD1= 7 Len=  274
 Calling FoFJK, ICntrl=      2127 FMM=F ISym2X=0 I1Cent= 0 IOpClX= 1 NMat=1 NMatS=1 NMatT=0.
 -------------------------------------------------------------------
 Center     Atomic                   Forces (Hartrees/Bohr)
 Number     Number              X              Y              Z
 -------------------------------------------------------------------
      1        6          -0.000012285   -0.055273651    0.000014759
      2        6           0.068298053    0.036189834   -0.000005479
      3        6          -0.000586500    0.004692005    0.000000666
      4        6           0.000012798    0.004392037   -0.000000334
      5        6           0.000566196    0.004697120    0.000000302
      6        6          -0.068274797    0.036181293   -0.000006269
      7        1           0.000971874    0.003748908    0.000000252
      8        1          -0.000000635    0.002439940   -0.000000446
      9        1          -0.000966906    0.003751316    0.000000090
     10        6          -0.009532885   -0.006368252   -0.000001248
     11        6           0.004504906    0.003601109   -0.000018860
     12        6           0.011068552    0.003768066   -0.000001118
     13        6           0.009289866    0.004805737   -0.000001057
     14        6           0.004804629    0.007686135   -0.000000942
     15        6          -0.008272597    0.006894315    0.000001301
     16        1           0.001080464   -0.000950238   -0.000000395
     17        6          -0.002791355   -0.012796786    0.000000143
     18        1           0.001087203   -0.000231344    0.000000290
     19        1           0.000390074   -0.000483826   -0.000000163
     20        1           0.002409874   -0.000151848   -0.000000114
     21        6           0.009486402   -0.006324494   -0.000002404
     22        6          -0.004503343    0.003601790   -0.000021037
     23        6          -0.011012576    0.003776242   -0.000000698
     24        6          -0.009243880    0.004761131   -0.000000628
     25        6          -0.004862862    0.007687678   -0.000000776
     26        6           0.008242576    0.006907169    0.000000615
     27        1          -0.001080214   -0.000940954   -0.000000221
     28        6           0.002823261   -0.012811926   -0.000000100
     29        1          -0.001082280   -0.000226011    0.000000046
     30        1          -0.000383558   -0.000491520   -0.000000082
     31        1          -0.002420441   -0.000153169    0.000000051
     32        7          -0.028361433   -0.058177767    0.000009533
     33        7           0.022691572    0.023438481    0.000013223
     34        7           0.028359279   -0.058159205    0.000006282
     35        7          -0.022699062    0.023445110    0.000013505
     36        6           0.000018022   -0.013346845   -0.000002284
     37        1           0.000796867    0.000990799    0.001032520
     38        1           0.000795408    0.000993478   -0.001033109
     39        1           0.001204633    0.002954369    0.000000521
     40        6          -0.000013177   -0.013342921   -0.000002095
     41        1          -0.000796137    0.000993093   -0.001032035
     42        1          -0.000797929    0.000990214    0.001031334
     43        1          -0.001205922    0.002954321    0.000000834
     44       27          -0.000001733    0.033889069    0.000005626
 -------------------------------------------------------------------
 Cartesian Forces:  Max     0.068298053 RMS     0.014749855

 GradGradGradGradGradGradGradGradGradGradGradGradGradGradGradGradGradGrad
 Berny optimization.
 Search for a local minimum.
 Step number   1 out of a maximum of    2
 All quantities printed in internal units (Hartrees-Bohrs-Radians)
 Second derivative matrix not updated -- first step.
 ITU=  0
     Eigenvalues ---    0.00056   0.00060   0.00200   0.00248   0.00251
     Eigenvalues ---    0.00392   0.00454   0.00619   0.00674   0.00695
     Eigenvalues ---    0.00710   0.00839   0.00846   0.01337   0.01590
     Eigenvalues ---    0.01825   0.02046   0.02065   0.02544   0.02553
     Eigenvalues ---    0.03103   0.03189   0.04122   0.04223   0.04478
     Eigenvalues ---    0.04534   0.04708   0.05401   0.05553   0.06324
     Eigenvalues ---    0.06349   0.06897   0.06934   0.07061   0.07072
     Eigenvalues ---    0.07076   0.07251   0.07690   0.07749   0.09622
     Eigenvalues ---    0.10150   0.10342   0.10427   0.11688   0.11937
     Eigenvalues ---    0.12001   0.12390   0.12407   0.12851   0.13367
     Eigenvalues ---    0.13381   0.13460   0.13688   0.14835   0.15558
     Eigenvalues ---    0.15890   0.15902   0.19719   0.20263   0.20633
     Eigenvalues ---    0.21155   0.22065   0.24236   0.25470   0.28767
     Eigenvalues ---    0.29625   0.30421   0.30676   0.31014   0.31839
     Eigenvalues ---    0.32297   0.34976   0.36984   0.37045   0.38367
     Eigenvalues ---    0.38524   0.41425   0.42139   0.45114   0.48094
     Eigenvalues ---    0.48544   0.49011   0.49340   0.51391   0.53113
     Eigenvalues ---    0.53694   0.55829   0.57607   0.63955   0.69303
     Eigenvalues ---    0.71394   0.73069   0.74243   0.74800   0.87287
     Eigenvalues ---    0.90305   0.91306   0.91510   0.93451   0.94452
     Eigenvalues ---    0.95658   0.97206   1.00562   1.04390   1.12326
     Eigenvalues ---    1.15987   1.16390   1.18774   1.20705   1.24992
     Eigenvalues ---    1.30935   1.37739   1.38024   1.45622   1.48022
     Eigenvalues ---    1.50385   1.51862   1.53341   1.62155   1.65251
     Eigenvalues ---    1.66714   1.67518   1.78831   1.80018   1.91230
     Eigenvalues ---    1.93194
 Quadratic step=3.380D-01 exceeds max=3.000D-01 adjusted using Lamda=-3.849D-03.
 Angle between NR and scaled steps=   9.25 degrees.
 Angle between quadratic step and forces=  54.27 degrees.
 Linear search not attempted -- first point.
 B after Tr=    -0.000000   -0.002835   -0.000003
         Rot=    1.000000   -0.000001   -0.000000   -0.000000 Ang=  -0.00 deg.
 Variable       Old X    -DE/DX   Delta X   Delta X   Delta X     New X
                                 (Linear)    (Quad)   (Total)
    X1        0.00001  -0.00001   0.00000  -0.00001  -0.00001   0.00000
    Y1        1.46722  -0.05527   0.00000  -0.11729  -0.12013   1.34710
    Z1        0.00011   0.00001   0.00000   0.00006   0.00006   0.00017
    X2       -2.42921   0.06830   0.00000   0.09424   0.09424  -2.33497
    Y2        2.55724   0.03619   0.00000  -0.01107  -0.01391   2.54333
    Z2        0.00008  -0.00001   0.00000   0.00002   0.00002   0.00010
    X3       -2.36685  -0.00059   0.00000   0.04123   0.04123  -2.32562
    Y3        5.18715   0.00469   0.00000   0.01423   0.01140   5.19855
    Z3       -0.00001   0.00000   0.00000   0.00003   0.00003   0.00003
    X4       -0.00001   0.00001   0.00000   0.00001   0.00001  -0.00000
    Y4        6.39119   0.00439   0.00000   0.06013   0.05729   6.44848
    Z4        0.00002  -0.00000   0.00000   0.00002   0.00002   0.00004
    X5        2.36687   0.00057   0.00000  -0.04125  -0.04125   2.32563
    Y5        5.18715   0.00470   0.00000   0.01424   0.01140   5.19855
    Z5        0.00009   0.00000   0.00000   0.00001   0.00001   0.00010
    X6        2.42919  -0.06827   0.00000  -0.09423  -0.09423   2.33497
    Y6        2.55725   0.03618   0.00000  -0.01107  -0.01391   2.54334
    Z6        0.00015  -0.00001   0.00000   0.00000   0.00000   0.00015
    X7       -4.08806   0.00097   0.00000   0.03953   0.03953  -4.04853
    Y7        6.29703   0.00375   0.00000   0.01838   0.01554   6.31257
    Z7       -0.00009   0.00000   0.00000   0.00004   0.00004  -0.00004
    X8        0.00000  -0.00000   0.00000   0.00000   0.00000   0.00000
    Y8        8.43912   0.00244   0.00000   0.06629   0.06346   8.50258
    Z8       -0.00002  -0.00000   0.00000   0.00000   0.00001  -0.00001
    X9        4.08806  -0.00097   0.00000  -0.03953  -0.03953   4.04854
    Y9        6.29703   0.00375   0.00000   0.01839   0.01555   6.31258
    Z9        0.00009   0.00000   0.00000   0.00000   0.00001   0.00010
   X10        6.95959  -0.00953   0.00000  -0.03971  -0.03971   6.91988
   Y10        1.10574  -0.00637   0.00000  -0.01994  -0.02278   1.08297
   Z10       -0.00004  -0.00000   0.00000  -0.00002  -0.00002  -0.00006
   X11        3.60027   0.00450   0.00000  -0.03622  -0.03622   3.56406
   Y11       -1.70261   0.00360   0.00000  -0.00789  -0.01072  -1.71333
   Z11        0.00024  -0.00002   0.00000  -0.00008  -0.00009   0.00015
   X12        7.88332   0.01107   0.00000  -0.01277  -0.01277   7.87055
   Y12       -1.40208   0.00377   0.00000   0.00365   0.00081  -1.40127
   Z12       -0.00018  -0.00000   0.00000   0.00001   0.00000  -0.00018
   X13        8.57563   0.00929   0.00000  -0.03174  -0.03174   8.54389
   Y13        3.14748   0.00481   0.00000  -0.00591  -0.00875   3.13873
   Z13       -0.00010  -0.00000   0.00000  -0.00003  -0.00003  -0.00013
   X14       10.45576   0.00480   0.00000  -0.00811  -0.00811  10.44765
   Y14       -1.89351   0.00769   0.00000   0.00721   0.00437  -1.88914
   Z14       -0.00037  -0.00000   0.00000   0.00002   0.00001  -0.00035
   X15       11.18558  -0.00827   0.00000  -0.03965  -0.03965  11.14594
   Y15        2.65128   0.00689   0.00000  -0.00006  -0.00290   2.64838
   Z15       -0.00032   0.00000   0.00000  -0.00000  -0.00000  -0.00033
   X16        7.87266   0.00108   0.00000  -0.02330  -0.02330   7.84936
   Y16        5.07286  -0.00095   0.00000  -0.00663  -0.00946   5.06340
   Z16        0.00002  -0.00000   0.00000  -0.00005  -0.00004  -0.00002
   X17       12.09906  -0.00279   0.00000  -0.01978  -0.01978  12.07928
   Y17        0.19899  -0.01280   0.00000  -0.00714  -0.00998   0.18901
   Z17       -0.00046   0.00000   0.00000   0.00002   0.00001  -0.00044
   X18       11.16628   0.00109   0.00000   0.00540   0.00540  11.17168
   Y18       -3.81598  -0.00023   0.00000   0.01034   0.00750  -3.80848
   Z18       -0.00046   0.00000   0.00000   0.00004   0.00003  -0.00043
   X19       12.48981   0.00039   0.00000  -0.03856  -0.03856  12.45125
   Y19        4.23560  -0.00048   0.00000  -0.00104  -0.00388   4.23172
   Z19       -0.00037  -0.00000   0.00000  -0.00000  -0.00000  -0.00037
   X20       14.11773   0.00241   0.00000  -0.01144  -0.01144  14.10629
   Y20       -0.13412  -0.00015   0.00000   0.00132  -0.00152  -0.13564
   Z20       -0.00062  -0.00000   0.00000   0.00003   0.00003  -0.00059
   X21       -6.95955   0.00949   0.00000   0.03970   0.03970  -6.91985
   Y21        1.10570  -0.00632   0.00000  -0.01991  -0.02275   1.08296
   Z21       -0.00007  -0.00000   0.00000  -0.00000  -0.00000  -0.00007
   X22       -3.60026  -0.00450   0.00000   0.03622   0.03622  -3.56405
   Y22       -1.70262   0.00360   0.00000  -0.00790  -0.01073  -1.71335
   Z22        0.00019  -0.00002   0.00000  -0.00008  -0.00008   0.00010
   X23       -7.88335  -0.01101   0.00000   0.01280   0.01280  -7.87055
   Y23       -1.40210   0.00378   0.00000   0.00366   0.00083  -1.40127
   Z23       -0.00013  -0.00000   0.00000   0.00001   0.00001  -0.00012
   X24       -8.57566  -0.00924   0.00000   0.03177   0.03177  -8.54389
   Y24        3.14750   0.00476   0.00000  -0.00594  -0.00878   3.13872
   Z24       -0.00010  -0.00000   0.00000  -0.00002  -0.00001  -0.00011
   X25      -10.45570  -0.00486   0.00000   0.00807   0.00807 -10.44763
   Y25       -1.89353   0.00769   0.00000   0.00721   0.00438  -1.88915
   Z25       -0.00019  -0.00000   0.00000   0.00001   0.00000  -0.00019
   X26      -11.18556   0.00824   0.00000   0.03964   0.03964 -11.14592
   Y26        2.65125   0.00691   0.00000  -0.00007  -0.00290   2.64835
   Z26       -0.00019   0.00000   0.00000  -0.00001  -0.00001  -0.00020
   X27       -7.87266  -0.00108   0.00000   0.02332   0.02332  -7.84933
   Y27        5.07284  -0.00094   0.00000  -0.00663  -0.00946   5.06338
   Z27       -0.00004  -0.00000   0.00000  -0.00002  -0.00002  -0.00007
   X28      -12.09908   0.00282   0.00000   0.01980   0.01980 -12.07928
   Y28        0.19898  -0.01281   0.00000  -0.00715  -0.00999   0.18899
   Z28       -0.00023  -0.00000   0.00000   0.00000  -0.00000  -0.00023
   X29      -11.16627  -0.00108   0.00000  -0.00541  -0.00541 -11.17168
   Y29       -3.81600  -0.00023   0.00000   0.01036   0.00752  -3.80848
   Z29       -0.00020   0.00000   0.00000   0.00001   0.00001  -0.00019
   X30      -12.48981  -0.00038   0.00000   0.03858   0.03858 -12.45124
   Y30        4.23559  -0.00049   0.00000  -0.00106  -0.00390   4.23169
   Z30       -0.00020  -0.00000   0.00000  -0.00001  -0.00001  -0.00021
   X31      -14.11771  -0.00242   0.00000   0.01142   0.01142 -14.10629
   Y31       -0.13414  -0.00015   0.00000   0.00131  -0.00153  -0.13567
   Z31       -0.00029   0.00000   0.00000   0.00000   0.00000  -0.00029
   X32       -4.34302  -0.02836   0.00000   0.03647   0.03647  -4.30655
   Y32        0.90455  -0.05818   0.00000  -0.06121  -0.06405   0.84050
   Z32        0.00001   0.00001   0.00000   0.00002   0.00002   0.00003
   X33       -5.86585   0.02269   0.00000   0.04849   0.04849  -5.81736
   Y33       -3.03121   0.02344   0.00000   0.02707   0.02423  -3.00697
   Z33       -0.00010   0.00001   0.00000   0.00002   0.00001  -0.00009
   X34        4.34303   0.02836   0.00000  -0.03648  -0.03648   4.30655
   Y34        0.90453  -0.05816   0.00000  -0.06120  -0.06404   0.84050
   Z34        0.00014   0.00001   0.00000  -0.00001  -0.00001   0.00013
   X35        5.86587  -0.02270   0.00000  -0.04848  -0.04848   5.81738
   Y35       -3.03120   0.02345   0.00000   0.02707   0.02424  -3.00696
   Z35       -0.00010   0.00001   0.00000   0.00001   0.00000  -0.00010
   X36        6.02667   0.00002   0.00000  -0.02678  -0.02678   5.99989
   Y36       -5.71119  -0.01335   0.00000   0.00746   0.00463  -5.70657
   Z36        0.00002  -0.00000   0.00000   0.00001  -0.00000   0.00001
   X37        7.00705   0.00080   0.00000  -0.01216  -0.01216   6.99489
   Y37       -6.41127   0.00099   0.00000   0.02352   0.02068  -6.39058
   Z37       -1.68963   0.00103   0.00000   0.00450   0.00449  -1.68514
   X38        7.00622   0.00080   0.00000  -0.01225  -0.01225   6.99397
   Y38       -6.41129   0.00099   0.00000   0.02355   0.02071  -6.39058
   Z38        1.69015  -0.00103   0.00000  -0.00442  -0.00443   1.68572
   X39        4.11867   0.00120   0.00000  -0.02542  -0.02542   4.09325
   Y39       -6.51418   0.00295   0.00000   0.02168   0.01885  -6.49533
   Z39       -0.00049   0.00000   0.00000  -0.00003  -0.00004  -0.00053
   X40       -6.02666  -0.00001   0.00000   0.02678   0.02679  -5.99988
   Y40       -5.71120  -0.01334   0.00000   0.00746   0.00462  -5.70658
   Z40        0.00009  -0.00000   0.00000   0.00002   0.00001   0.00010
   X41       -7.00609  -0.00080   0.00000   0.01225   0.01225  -6.99384
   Y41       -6.41127   0.00099   0.00000   0.02355   0.02072  -6.39055
   Z41        1.69030  -0.00103   0.00000  -0.00441  -0.00442   1.68589
   X42       -7.00714  -0.00080   0.00000   0.01215   0.01215  -6.99500
   Y42       -6.41131   0.00099   0.00000   0.02352   0.02068  -6.39062
   Z42       -1.68948   0.00103   0.00000   0.00451   0.00450  -1.68498
   X43       -4.11864  -0.00121   0.00000   0.02541   0.02541  -4.09323
   Y43       -6.51418   0.00295   0.00000   0.02167   0.01883  -6.49535
   Z43       -0.00054   0.00000   0.00000  -0.00002  -0.00003  -0.00058
   X44        0.00001  -0.00000   0.00000  -0.00001  -0.00001   0.00001
   Y44       -2.28607   0.03389   0.00000   0.04063   0.03780  -2.24827
   Z44        0.00020   0.00001   0.00000  -0.00007  -0.00007   0.00013
         Item               Value     Threshold  Converged?
 Maximum Force            0.068298     0.000450     NO 
 RMS     Force            0.014750     0.000300     NO 
 Maximum Displacement     0.120125     0.001800     NO 
 RMS     Displacement     0.026076     0.001200     NO 
 Predicted change in Energy=-1.502671D-02
 GradGradGradGradGradGradGradGradGradGradGradGradGradGradGradGradGradGrad

 Unable to Open any file for archive entry.
 1\1\GINC-X11P1N5\Force\UPBE1PBE\GenECP\C22H17Co1N4(3)\MAYUMIAO\17-Jul-
 2024\0\\# pbe1pbe em=gd3bj genecp g09default scf=(xqc,maxcycle=64) for
 ce guess=read nosymm\\Title Card\\0,3\C,0.00000631,0.77642087,0.000060
 57\C,-1.28548125,1.35323371,0.00003992\C,-1.2524838,2.74492383,-0.0000
 0327\C,-0.00000492,3.38207089,0.00001202\C,1.25249479,2.74492224,0.000
 04597\C,1.28547398,1.35323726,0.00007867\H,-2.1633104,3.33224264,-0.00
 00452\H,0.00000059,4.46579088,-0.00001017\H,2.1633098,3.33224255,0.000
 04758\C,3.68285722,0.58513303,-0.00002127\C,1.90518284,-0.9009818,0.00
 012598\C,4.1716738,-0.74194856,-0.0000931\C,4.5380262,1.6655737,-0.000
 0547\C,5.53294878,-1.00200178,-0.00019487\C,5.91915541,1.40299512,-0.0
 0017076\H,4.16603087,2.68444165,0.00001036\C,6.40254794,0.10529877,-0.
 00024161\H,5.90894009,-2.01932918,-0.00024457\H,6.60932209,2.24138346,
 -0.00019568\H,7.47078232,-0.07097275,-0.00032756\C,-3.68283544,0.58511
 252,-0.00003576\C,-1.90517717,-0.90098623,0.00009866\C,-4.17168993,-0.
 7419584,-0.00006784\C,-4.53804397,1.66558608,-0.00005302\C,-5.53291783
 ,-1.00201052,-0.0000999\C,-5.91914215,1.40298191,-0.00009948\H,-4.1660
 3076,2.68443359,-0.00002306\C,-6.40255676,0.10529605,-0.00012254\H,-5.
 9089343,-2.0193394,-0.00010547\H,-6.60932532,2.24137811,-0.00010773\H,
 -7.47077266,-0.07098323,-0.0001527\N,-2.29822834,0.4786665,0.00000768\
 N,-3.10407504,-1.60404466,-0.00005533\N,2.29823136,0.47865882,0.000074
 13\N,3.10408366,-1.60404412,-0.00005516\C,3.18917879,-3.02223402,0.000
 0084\H,3.70797125,-3.39269704,-0.89411579\H,3.70753381,-3.39270937,0.8
 9438814\H,2.17950388,-3.44715645,-0.00026018\C,-3.18917152,-3.02223927
 ,0.00004671\H,-3.70746172,-3.39269709,0.89446888\H,-3.7080212,-3.39271
 785,-0.89403409\H,-2.17949294,-3.44715815,-0.00028774\Co,0.00000748,-1
 .209737,0.00010489\\Version=ES64L-G16RevC.01\HF=-1212.1165313\S2=2.239
 819\S2-1=0.\S2A=2.005854\RMSD=1.694e-09\RMSF=1.475e-02\Dipole=0.000022
 9,-1.403429,0.0001394\Quadrupole=8.5093752,10.7618846,-19.2712599,0.00
 01471,-0.0003146,-0.0010632\PG=C01 [X(C22H17Co1N4)]\\@
 The archive entry for this job was punched.


 SEEN ON A WALL AT THE UNIVERSITY OF ILLINOIS AT CHICAGO CIRCLE:

 TO DO IS TO BE  -- SOCRATES
 TO BE IS TO DO  -- SARTRE
 OO BE DO BE DO  -- SINATRA
 Job cpu time:       0 days  0 hours 54 minutes 19.9 seconds.
 Elapsed time:       0 days  0 hours  0 minutes 59.1 seconds.
 File lengths (MBytes):  RWF=    184 Int=      0 D2E=      0 Chk=     72 Scr=      1
 Normal termination of Gaussian 16 at Wed Jul 17 21:02:55 2024.
