 Entering Gaussian System, Link 0=g16
 Input=JOBS/1_A.gjf
 Output=JOBS/1_A.log
 Initial command:
 /data/app/gaussian/C01-avx2//g16/l1.exe "/tmp/Gau-2034077.inp" -scrdir="/tmp/"
 Entering Link 1 = /data/app/gaussian/C01-avx2//g16/l1.exe PID=   2034078.
  
 Copyright (c) 1988-2019, Gaussian, Inc.  All Rights Reserved.
  
 This is part of the Gaussian(R) 16 program.  It is based on
 the Gaussian(R) 09 system (copyright 2009, Gaussian, Inc.),
 the Gaussian(R) 03 system (copyright 2003, Gaussian, Inc.),
 the Gaussian(R) 98 system (copyright 1998, Gaussian, Inc.),
 the Gaussian(R) 94 system (copyright 1995, Gaussian, Inc.),
 the Gaussian 92(TM) system (copyright 1992, Gaussian, Inc.),
 the Gaussian 90(TM) system (copyright 1990, Gaussian, Inc.),
 the Gaussian 88(TM) system (copyright 1988, Gaussian, Inc.),
 the Gaussian 86(TM) system (copyright 1986, Carnegie Mellon
 University), and the Gaussian 82(TM) system (copyright 1983,
 Carnegie Mellon University). Gaussian is a federally registered
 trademark of Gaussian, Inc.
  
 This software contains proprietary and confidential information,
 including trade secrets, belonging to Gaussian, Inc.
  
 This software is provided under written license and may be
 used, copied, transmitted, or stored only in accord with that
 written license.
  
 The following legend is applicable only to US Government
 contracts under FAR:
  
                    RESTRICTED RIGHTS LEGEND
  
 Use, reproduction and disclosure by the US Government is
 subject to restrictions as set forth in subparagraphs (a)
 and (c) of the Commercial Computer Software - Restricted
 Rights clause in FAR 52.227-19.
  
 Gaussian, Inc.
 340 Quinnipiac St., Bldg. 40, Wallingford CT 06492
  
  
 ---------------------------------------------------------------
 Warning -- This program may not be used in any manner that
 competes with the business of Gaussian, Inc. or will provide
 assistance to any competitor of Gaussian, Inc.  The licensee
 of this program is prohibited from giving any competitor of
 Gaussian, Inc. access to this program.  By using this program,
 the user acknowledges that Gaussian, Inc. is engaged in the
 business of creating and licensing software in the field of
 computational chemistry and represents and warrants to the
 licensee that it is not a competitor of Gaussian, Inc. and that
 it will not use this program in any manner prohibited above.
 ---------------------------------------------------------------
  

 Cite this work as:
 Gaussian 16, Revision C.01,
 M. J. Frisch, G. W. Trucks, H. B. Schlegel, G. E. Scuseria, 
 M. A. Robb, J. R. Cheeseman, G. Scalmani, V. Barone, 
 G. A. Petersson, H. Nakatsuji, X. Li, M. Caricato, A. V. Marenich, 
 J. Bloino, B. G. Janesko, R. Gomperts, B. Mennucci, H. P. Hratchian, 
 J. V. Ortiz, A. F. Izmaylov, J. L. Sonnenberg, D. Williams-Young, 
 F. Ding, F. Lipparini, F. Egidi, J. Goings, B. Peng, A. Petrone, 
 T. Henderson, D. Ranasinghe, V. G. Zakrzewski, J. Gao, N. Rega, 
 G. Zheng, W. Liang, M. Hada, M. Ehara, K. Toyota, R. Fukuda, 
 J. Hasegawa, M. Ishida, T. Nakajima, Y. Honda, O. Kitao, H. Nakai, 
 T. Vreven, K. Throssell, J. A. Montgomery, Jr., J. E. Peralta, 
 F. Ogliaro, M. J. Bearpark, J. J. Heyd, E. N. Brothers, K. N. Kudin, 
 V. N. Staroverov, T. A. Keith, R. Kobayashi, J. Normand, 
 K. Raghavachari, A. P. Rendell, J. C. Burant, S. S. Iyengar, 
 J. Tomasi, M. Cossi, J. M. Millam, M. Klene, C. Adamo, R. Cammi, 
 J. W. Ochterski, R. L. Martin, K. Morokuma, O. Farkas, 
 J. B. Foresman, and D. J. Fox, Gaussian, Inc., Wallingford CT, 2019.
 
 ******************************************
 Gaussian 16:  ES64L-G16RevC.01  3-Jul-2019
                17-Jul-2024 
 ******************************************
 %chk=a.chk
 %nprocshared=56
 Will use up to   56 processors via shared memory.
 %mem=96gb
 ----------------------------------------------------------------------
 # pbe1pbe em=gd3bj genecp g09default scf=(xqc,maxcycle=64) force guess
 =read nosymm
 ----------------------------------------------------------------------
 1/10=7,30=1,38=1,158=3,167=1/1,3;
 2/12=2,15=1,17=6,18=5,40=1/2;
 3/5=7,11=2,16=1,17=8,25=1,27=10,30=1,71=1,74=-13,75=-4,116=-2,124=41,158=3/1,2,3;
 4/5=1,60=-1/1;
 5/5=2,7=64,8=3,13=1,38=6,87=10/2,8;
 6/7=2,8=2,9=2,10=2,28=1,87=10/1;
 7/29=1,30=1,87=10/1,2,3,16;
 1/10=7,30=1,158=3,167=1/3;
 99//99;
 Using 2006 physical constants.
 ----------
 Title Card
 ----------
 Symbolic Z-matrix:
 Charge =  0 Multiplicity = 1
 6                    0.         0.72257   0.00006 
 6                    -1.25367   1.33878   0.00003 
 6                    -1.23236   2.74538   0. 
 6                    0.         3.4131    0.00001 
 6                     1.23237   2.74538   0.00005 
 6                     1.25367   1.33878   0.00009 
 1                    -2.15114   3.32006  -0.00004 
 1                     0.        4.50242  -0.00001 
 1                     2.15115   3.32006   0.00005 
 6                     3.66414   0.58076  -0.00002 
 6                     1.88782  -0.9023    0.0001 
 6                     4.15599  -0.74282  -0.0001 
 6                     4.516     1.66134  -0.00005 
 6                     5.5256   -1.00498  -0.0002 
 6                     5.90223   1.39636  -0.00017 
 1                     4.15914   2.6842    0.00001 
 6                     6.38963   0.10274  -0.00024 
 1                     5.907    -2.01856  -0.00025 
 1                     6.58961   2.23506  -0.0002 
 1                     7.4625   -0.07111  -0.00032 
 6                    -3.66413   0.58076  -0.00004 
 6                    -1.88782  -0.9023    0.00006 
 6                    -4.15599  -0.74283  -0.00006 
 6                    -4.516     1.66134  -0.00005 
 6                    -5.52559  -1.00498  -0.0001 
 6                    -5.90222   1.39635  -0.0001 
 1                    -4.15914   2.6842   -0.00002 
 6                    -6.38963   0.10273  -0.00012 
 1                    -5.907    -2.01857  -0.00011 
 1                    -6.58961   2.23506  -0.00011 
 1                    -7.46249  -0.07112  -0.00015 
 7                    -2.26921   0.47884   0.00002 
 7                    -3.08709  -1.60217  -0.00004 
 7                     2.26922   0.47885   0.00008 
 7                     3.0871   -1.60218  -0.00004 
 6                     3.17365  -3.01713  0. 
 1                     3.70349  -3.37723  -0.89265 
 1                     3.70308  -3.37723   0.89291 
 1                     2.16571  -3.44377  -0.00024 
 6                    -3.17364  -3.01714   0.00004 
 1                    -3.703    -3.37722   0.89299 
 1                    -3.70354  -3.37725  -0.89257 
 1                    -2.1657   -3.44378  -0.00027 
 27                    0.       -1.1964    0.00011 
 

 GradGradGradGradGradGradGradGradGradGradGradGradGradGradGradGradGradGrad
 Berny optimization.
 Initialization pass.
 Trust Radius=3.00D-01 FncErr=1.00D-07 GrdErr=1.00D-07 EigMax=2.50D+02 EigMin=1.00D-04
 Number of steps in this run=      2 maximum allowed number of steps=      2.
 GradGradGradGradGradGradGradGradGradGradGradGradGradGradGradGradGradGrad

                          Input orientation:                          
 ---------------------------------------------------------------------
 Center     Atomic      Atomic             Coordinates (Angstroms)
 Number     Number       Type             X           Y           Z
 ---------------------------------------------------------------------
      1          6           0       -0.000001    0.722569    0.000057
      2          6           0       -1.253670    1.338780    0.000035
      3          6           0       -1.232361    2.745382    0.000003
      4          6           0       -0.000000    3.413096    0.000013
      5          6           0        1.232366    2.745381    0.000053
      6          6           0        1.253673    1.338779    0.000086
      7          1           0       -2.151144    3.320063   -0.000044
      8          1           0        0.000001    4.502415   -0.000012
      9          1           0        2.151146    3.320064    0.000051
     10          6           0        3.664136    0.580764   -0.000020
     11          6           0        1.887819   -0.902296    0.000096
     12          6           0        4.155995   -0.742817   -0.000095
     13          6           0        4.516000    1.661343   -0.000055
     14          6           0        5.525598   -1.004977   -0.000204
     15          6           0        5.902231    1.396361   -0.000167
     16          1           0        4.159142    2.684202    0.000014
     17          6           0        6.389629    0.102736   -0.000243
     18          1           0        5.907005   -2.018558   -0.000251
     19          1           0        6.589611    2.235064   -0.000196
     20          1           0        7.462497   -0.071113   -0.000322
     21          6           0       -3.664129    0.580757   -0.000040
     22          6           0       -1.887817   -0.902297    0.000059
     23          6           0       -4.155993   -0.742827   -0.000059
     24          6           0       -4.516004    1.661342   -0.000050
     25          6           0       -5.525588   -1.004982   -0.000101
     26          6           0       -5.902224    1.396350   -0.000095
     27          1           0       -4.159142    2.684196   -0.000022
     28          6           0       -6.389633    0.102727   -0.000123
     29          1           0       -5.906998   -2.018568   -0.000111
     30          1           0       -6.589613    2.235057   -0.000109
     31          1           0       -7.462488   -0.071124   -0.000150
     32          7           0       -2.269214    0.478842    0.000018
     33          7           0       -3.087090   -1.602173   -0.000041
     34          7           0        2.269222    0.478849    0.000085
     35          7           0        3.087100   -1.602179   -0.000038
     36          6           0        3.173647   -3.017128   -0.000002
     37          1           0        3.703492   -3.377229   -0.892649
     38          1           0        3.703075   -3.377226    0.892908
     39          1           0        2.165713   -3.443774   -0.000242
     40          6           0       -3.173641   -3.017137    0.000039
     41          1           0       -3.703003   -3.377218    0.892986
     42          1           0       -3.703542   -3.377245   -0.892570
     43          1           0       -2.165701   -3.443776   -0.000268
     44         27           0        0.000005   -1.196396    0.000114
 ---------------------------------------------------------------------
                    Distance matrix (angstroms):
                    1          2          3          4          5
     1  C    0.000000
     2  C    1.396926   0.000000
     3  C    2.368646   1.406763   0.000000
     4  C    2.690526   2.423732   1.401626   0.000000
     5  C    2.368648   2.856379   2.464727   1.401631   0.000000
     6  C    1.396929   2.507343   2.856378   2.423734   1.406763
     7  H    3.372594   2.175073   1.083707   2.153155   3.431967
     8  H    3.779846   3.402981   2.146132   1.089319   2.146134
     9  H    3.372597   3.939322   3.431964   2.153157   1.083706
    10  C    3.666879   4.975882   5.353620   4.631198   3.255622
    11  C    2.490793   3.858934   4.800112   4.710251   3.706098
    12  C    4.406774   5.796337   6.418871   5.877406   4.551388
    13  C    4.612544   5.778680   5.849684   4.843852   3.457947
    14  C    5.789358   7.172983   7.728855   7.074716   5.700617
    15  C    5.940567   7.156133   7.261010   6.237271   4.860813
    16  H    4.598529   5.577517   5.391850   4.222529   2.927416
    17  C    6.419623   7.742598   8.067113   7.196238   5.794906
    18  H    6.512027   7.908665   8.582871   8.024685   6.674381
    19  H    6.760963   7.894326   7.838602   6.694082   5.381496
    20  H    7.504586   8.829461   9.139650   8.235811   6.837191
    21  C    3.666872   2.526838   3.255625   4.631196   5.353621
    22  C    2.490791   2.329070   3.706101   4.710251   4.800114
    23  C    4.406774   3.571633   4.551397   5.877411   6.418878
    24  C    4.612545   3.278241   3.457955   4.843855   5.849691
    25  C    5.789348   4.872628   5.700616   7.074711   7.728852
    26  C    5.940557   4.648910   4.860813   6.237267   7.261009
    27  H    4.598525   3.201860   2.927420   4.222529   5.391854
    28  C    6.419627   5.282607   5.794918   7.196245   8.067124
    29  H    6.512023   5.738052   6.674387   8.024686   8.582873
    30  H    6.760962   5.410693   5.381503   6.694084   7.838608
    31  H    7.504576   6.366886   6.837191   8.235806   9.139648
    32  N    2.282264   1.330722   2.492441   3.709336   4.171121
    33  N    3.864525   3.465636   4.726654   5.889231   6.128534
    34  N    2.282273   3.626327   4.171122   3.709336   2.492436
    35  N    3.864536   5.243236   6.128542   5.889241   4.726660
    36  C    4.904832   6.210883   7.253925   7.170761   6.080714
    37  H    5.596528   6.900078   7.914912   7.785962   6.662562
    38  H    5.596274   6.899802   7.914679   7.785789   6.662426
    39  H    4.695608   5.879201   7.060634   7.190756   6.259135
    40  C    4.904834   4.760283   6.080723   7.170766   7.253930
    41  H    5.596231   5.388620   6.662411   7.785756   7.914633
    42  H    5.596559   5.388831   6.662580   7.785991   7.914955
    43  H    4.695603   4.868741   6.259137   7.190754   7.060632
    44  Co   1.918965   2.828218   4.129931   4.609491   4.129929
                    6          7          8          9         10
     6  C    0.000000
     7  H    3.939323   0.000000
     8  H    3.402982   2.454665   0.000000
     9  H    2.175075   4.302290   2.454665   0.000000
    10  C    2.526840   6.428160   5.367051   3.129362   0.000000
    11  C    2.329068   5.843076   5.724924   4.230563   2.314037
    12  C    3.571626   7.502466   6.692140   4.530609   1.412016
    13  C    3.278236   6.870383   5.335348   2.888580   1.375982
    14  C    4.872632   8.811262   7.801513   5.485701   2.445325
    15  C    4.648915   8.279944   6.669625   4.215599   2.382072
    16  H    3.201861   6.342242   4.539202   2.106269   2.160899
    17  C    5.282599   9.126664   7.757869   5.321273   2.767097
    18  H    5.738050   9.666159   8.798624   6.527432   3.433211
    19  H    5.410690   8.807839   6.968777   4.569157   3.360821
    20  H    6.366891  10.194223   8.752486   6.301630   3.853893
    21  C    4.975879   3.129364   5.367052   6.428159   7.328265
    22  C    3.858935   4.230563   5.724925   5.843078   5.746621
    23  C    5.796340   4.530617   6.692148   7.502472   7.931349
    24  C    5.778686   2.888584   5.335353   6.870389   8.251202
    25  C    7.172976   5.485698   7.801510   8.811258   9.325535
    26  C    7.156128   4.215598   6.669625   8.279942   9.601063
    27  H    5.577518   2.106272   4.539205   6.342244   8.101117
    28  C    7.742606   5.321282   7.757878   9.126673  10.065127
    29  H    7.908665   6.527435   8.798628   9.666161   9.917818
    30  H    7.894330   4.569162   6.968782   8.807843  10.386339
    31  H    8.829455   6.301628   8.752485  10.194219  11.145703
    32  N    3.626323   2.843673   4.619358   5.254724   5.934225
    33  N    5.243226   5.010429   6.840770   7.188014   7.095369
    34  N    1.330722   5.254725   4.619356   2.843668   1.398632
    35  N    3.465644   7.188022   6.840778   5.010437   2.257921
    36  C    4.760276   8.277282   8.161836   6.419152   3.631171
    37  H    5.388814   8.940203   8.752225   6.932563   4.057590
    38  H    5.388637   8.939963   8.752075   6.932487   4.057650
    39  H    4.868740   8.024010   8.236032   6.763854   4.294435
    40  C    6.210887   6.419159   8.161842   8.277287   7.726583
    41  H    6.899749   6.932484   8.752046   8.939910   8.410578
    42  H    6.900123   6.932566   8.752253   8.940251   8.411014
    43  H    5.879196   6.763854   8.236032   8.024008   7.084061
    44  Co   2.828214   5.002583   5.698811   5.002581   4.072364
                   11         12         13         14         15
    11  C    0.000000
    12  C    2.273776   0.000000
    13  C    3.671455   2.430965   0.000000
    14  C    3.639229   1.394469   2.851062   0.000000
    15  C    4.625941   2.761417   1.411330   2.430694   0.000000
    16  H    4.245218   3.427021   1.083323   3.934113   2.167232
    17  C    4.612633   2.388322   2.437159   1.404841   1.382397
    18  H    4.171319   2.166461   3.934027   1.082967   3.414922
    19  H    5.652423   3.845811   2.151515   3.410277   1.084396
    20  H    5.636303   3.374040   3.418077   2.150274   2.141941
    21  C    5.746614   7.931342   8.251193   9.325537   9.601065
    22  C    3.775636   6.045916   6.897908   7.414127   8.122110
    23  C    6.045915   8.311987   8.999083   9.685139  10.283189
    24  C    6.897911   8.999085   9.032004  10.389563  10.421604
    25  C    7.414118   9.685132  10.389552  11.051186  11.677392
    26  C    8.122101  10.283180  10.421594  11.677392  11.804455
    27  H    7.030551   8.993659   8.735234  10.363599  10.143458
    28  C    8.338242  10.579471  11.016448  11.966610  12.359749
    29  H    7.874340  10.143537  11.053535  11.477440  12.293072
    30  H    9.039349  11.150597  11.120422  12.540979  12.519967
    31  H    9.387176  11.637882  12.103124  13.021615  13.445044
    32  N    4.380464   6.540317   6.887484   7.934785   8.222794
    33  N    5.023898   7.293886   8.273906   8.633368   9.476239
    34  N    1.432839   2.247749   2.538958   3.578509   3.747077
    35  N    1.388564   1.371510   3.562630   2.510563   4.112931
    36  C    2.475049   2.477397   4.867238   3.095226   5.188839
    37  H    3.196710   2.818073   5.181129   3.121555   5.330866
    38  H    3.196490   2.818280   5.181256   3.121987   5.331135
    39  H    2.556626   3.355054   5.620149   4.151694   6.114611
    40  C    5.485520   7.674379   9.001042   8.928917  10.092097
    41  H    6.178979   8.336757   9.681769   9.570392  10.763145
    42  H    6.179445   8.337208   9.682191   9.570841  10.763576
    43  H    4.784364   6.874519   8.408768   8.068694   9.408424
    44  Co   1.910585   4.180668   5.344238   5.528908   6.446600
                   16         17         18         19         20
    16  H    0.000000
    17  C    3.411604   0.000000
    18  H    5.017069   2.175503   0.000000
    19  H    2.471620   2.141685   4.308045   0.000000
    20  H    4.301619   1.086862   2.492408   2.465844   0.000000
    21  C    8.101114  10.065116   9.917815  10.386334  11.145706
    22  C    7.030554   8.338238   7.874344   9.039349   9.387185
    23  C    8.993664  10.579467  10.143540  11.150598  11.637891
    24  C    8.735238  11.016446  11.053541  11.120424  12.103135
    25  C   10.363594  11.966597  11.477435  12.540971  13.021616
    26  C   10.143453  12.359736  12.293066  12.519959  13.445044
    27  H    8.318283  10.860041  11.110499  10.758132  11.943794
    28  C   10.860049  12.779262  12.478267  13.153237  13.853221
    29  H   11.110500  12.478260  11.814002  13.200705  13.510588
    30  H   10.758134  13.153232  13.200708  13.179224  14.240092
    31  H   11.943789  13.853208  13.510582  14.240084  14.924985
    32  N    6.796129   8.667007   8.549126   9.031229   9.747238
    33  N    8.419079   9.628859   9.003728  10.409752  10.660110
    34  N    2.904373   4.137537   4.412540   4.663696   5.222314
    35  N    4.418409   3.716643   2.850480   5.195384   4.635544
    36  C    5.785877   4.480635   2.910049   6.265328   5.203195
    37  H    6.143729   4.485741   2.738216   6.373695   5.084955
    38  H    6.143791   4.486137   2.738798   6.373973   5.085420
    39  H    6.444055   5.515360   4.003561   7.198616   6.279392
    40  C    9.288432  10.059311   9.135387  11.086330  11.036598
    41  H    9.967524  10.713037   9.746593  11.757270  11.678901
    42  H    9.967931  10.713478   9.747044  11.757693  11.679343
    43  H    8.806574   9.261286   8.197550  10.435742  10.201816
    44  Co   5.688362   6.520356   5.963941   7.429524   7.546857
                   21         22         23         24         25
    21  C    0.000000
    22  C    2.314030   0.000000
    23  C    1.412021   2.273774   0.000000
    24  C    1.375991   3.671458   2.430974   0.000000
    25  C    2.445322   3.639220   1.394459   2.851060   0.000000
    26  C    2.382070   4.625931   2.761412   1.411321   2.430689
    27  H    2.160900   4.245214   3.427024   1.083319   3.934109
    28  C    2.767107   4.612637   2.388328   2.437164   1.404846
    29  H    3.433213   4.171315   2.166457   3.934031   1.082973
    30  H    3.360827   5.652422   3.845816   2.151512   3.410279
    31  H    3.853891   5.636293   3.374032   3.418070   2.150273
    32  N    1.398634   1.432832   2.247757   2.538970   3.578507
    33  N    2.257911   1.388554   1.371506   3.562629   2.510559
    34  N    5.934226   4.380472   6.540327   6.887494   7.934785
    35  N    7.095372   5.023906   7.293893   8.273920   8.633368
    36  C    7.726575   5.485520   7.674377   9.001045   8.928909
    37  H    8.410960   6.179398   8.337163   9.682150   9.570795
    38  H    8.410630   6.179040   8.336810   9.681828   9.570436
    39  H    7.084061   4.784372   6.874524   8.408778   8.068694
    40  C    3.631174   2.475054   2.477398   4.867248   3.095226
    41  H    4.057656   3.196475   2.818288   5.181271   3.122006
    42  H    4.057579   3.196719   2.818057   5.181124   3.121536
    43  H    4.294433   2.556626   3.355054   5.620156   4.151693
    44  Co   4.072364   1.910593   4.180675   5.344249   5.528907
                   26         27         28         29         30
    26  C    0.000000
    27  H    2.167229   0.000000
    28  C    1.382399   3.411609   0.000000
    29  H    3.414921   5.017070   2.175506   0.000000
    30  H    1.084405   2.471622   2.141687   4.308049   0.000000
    31  H    2.141939   4.301614   1.086849   2.492406   2.465843
    32  N    3.747076   2.904378   4.137550   4.412542   4.663704
    33  N    4.112920   4.418399   3.716648   2.850484   5.195383
    34  N    8.222793   6.796132   8.667020   8.549132   9.031236
    35  N    9.476239   8.419087   9.628871   9.003731  10.409762
    36  C   10.092087   9.288427  10.059315   9.135383  11.086329
    37  H   10.763525   9.967881  10.713443   9.747005  11.757652
    38  H   10.763190   9.967578  10.713092   9.746637  11.757322
    39  H    9.408422   8.806577   9.261296   8.197553  10.435749
    40  C    5.188837   5.785880   4.480642   2.910048   6.265333
    41  H    5.331145   6.143799   4.486161   2.738822   6.373991
    42  H    5.330846   6.143719   4.485727   2.738193   6.373682
    43  H    6.114607   6.444055   5.515368   4.003563   7.198621
    44  Co   6.446598   5.688364   6.520367   5.963946   7.429531
                   31         32         33         34         35
    31  H    0.000000
    32  N    5.222313   0.000000
    33  N    4.635538   2.235967   0.000000
    34  N    9.747238   4.538436   5.746367   0.000000
    35  N   10.660109   5.746368   6.174190   2.235978   0.000000
    36  C   11.036589   6.468890   6.418639   3.611072   1.417594
    37  H   11.679298   7.165148   7.075280   4.209921   2.080264
    38  H   11.678941   7.164828   7.074922   4.209796   2.080282
    39  H   10.201815   5.920768   5.566277   3.923988   2.059230
    40  C    5.203191   3.611075   1.417608   6.468901   6.418644
    41  H    5.085438   4.209792   2.080296   7.164775   7.074868
    42  H    5.084931   4.209919   2.080264   7.165208   7.075330
    43  H    6.279390   3.923984   2.059237   5.920771   5.566273
    44  Co   7.546856   2.820598   3.113650   2.820601   3.113650
                   36         37         38         39         40
    36  C    0.000000
    37  H    1.098739   0.000000
    38  H    1.098751   1.785558   0.000000
    39  H    1.094513   1.779209   1.779221   0.000000
    40  C    6.347288   6.944172   6.943782   5.356372   0.000000
    41  H    6.943732   7.618705   7.406079   5.936676   1.098743
    42  H    6.944213   7.407034   7.618787   5.937072   1.098737
    43  H    5.356367   5.937020   5.936727   4.331414   1.094516
    44  Co   3.658835   4.389633   4.389286   3.121058   3.658843
                   41         42         43         44
    41  H    0.000000
    42  H    1.785555   0.000000
    43  H    1.779222   1.779209   0.000000
    44  Co   4.389246   4.389675   3.121058   0.000000
 Symmetry turned off by external request.
 Stoichiometry    C22H17CoN4
 Framework group  C1[X(C22H17CoN4)]
 Deg. of freedom   126
 Full point group                 C1      NOp   1
 Rotational constants (GHZ):           0.4687995           0.1016916           0.0836537
 General basis read from cards:  (5D, 7F)
 ======================================================================================================
                                       Pseudopotential Parameters
 ======================================================================================================
  Center     Atomic      Valence      Angular      Power
  Number     Number     Electrons     Momentum     of R      Exponent        Coefficient   SO-Coeffient
 ======================================================================================================
    1          6
                                   No pseudopotential on this center.
    2          6
                                   No pseudopotential on this center.
    3          6
                                   No pseudopotential on this center.
    4          6
                                   No pseudopotential on this center.
    5          6
                                   No pseudopotential on this center.
    6          6
                                   No pseudopotential on this center.
    7          1
                                   No pseudopotential on this center.
    8          1
                                   No pseudopotential on this center.
    9          1
                                   No pseudopotential on this center.
   10          6
                                   No pseudopotential on this center.
   11          6
                                   No pseudopotential on this center.
   12          6
                                   No pseudopotential on this center.
   13          6
                                   No pseudopotential on this center.
   14          6
                                   No pseudopotential on this center.
   15          6
                                   No pseudopotential on this center.
   16          1
                                   No pseudopotential on this center.
   17          6
                                   No pseudopotential on this center.
   18          1
                                   No pseudopotential on this center.
   19          1
                                   No pseudopotential on this center.
   20          1
                                   No pseudopotential on this center.
   21          6
                                   No pseudopotential on this center.
   22          6
                                   No pseudopotential on this center.
   23          6
                                   No pseudopotential on this center.
   24          6
                                   No pseudopotential on this center.
   25          6
                                   No pseudopotential on this center.
   26          6
                                   No pseudopotential on this center.
   27          1
                                   No pseudopotential on this center.
   28          6
                                   No pseudopotential on this center.
   29          1
                                   No pseudopotential on this center.
   30          1
                                   No pseudopotential on this center.
   31          1
                                   No pseudopotential on this center.
   32          7
                                   No pseudopotential on this center.
   33          7
                                   No pseudopotential on this center.
   34          7
                                   No pseudopotential on this center.
   35          7
                                   No pseudopotential on this center.
   36          6
                                   No pseudopotential on this center.
   37          1
                                   No pseudopotential on this center.
   38          1
                                   No pseudopotential on this center.
   39          1
                                   No pseudopotential on this center.
   40          6
                                   No pseudopotential on this center.
   41          1
                                   No pseudopotential on this center.
   42          1
                                   No pseudopotential on this center.
   43          1
                                   No pseudopotential on this center.
   44         27           17
                                      F and up 
                                                     2        1.0000000        0.00000000    0.00000000
                                      S - F
                                                     2       23.6600000      283.96056600    0.00000000
                                                     2       10.6100000       47.15684600    0.00000000
                                      P - F
                                                     2       25.0400000      182.21223600    0.00000000
                                                     2       10.4400000       35.23335200    0.00000000
                                      D - F
                                                     2       29.5400000      -26.47533300    0.00000000
                                                     2       10.1800000       -1.82578700    0.00000000
 ======================================================================================================
   441 basis functions,   871 primitive gaussians,   473 cartesian basis functions
    97 alpha electrons       97 beta electrons
       nuclear repulsion energy      2499.0262648584 Hartrees.
 NAtoms=   44 NActive=   44 NUniq=   44 SFac= 1.00D+00 NAtFMM=   60 NAOKFM=F Big=F
 Integral buffers will be    131072 words long.
 Raffenetti 2 integral format.
 Two-electron integral symmetry is turned off.
 Nuclear repulsion after empirical dispersion term =     2498.9669784681 Hartrees.
 One-electron integrals computed using PRISM.
   1 Symmetry operations used in ECPInt.
 ECPInt:  NShTT=   11781 NPrTT=   71406 LenC2=    9554 LenP2D=   32162.
 LDataN:  DoStor=T MaxTD1= 6 Len=  172
 NBasis=   441 RedAO= T EigKep=  3.36D-04  NBF=   441
 NBsUse=   441 1.00D-06 EigRej= -1.00D+00 NBFU=   441
 Initial guess from the checkpoint file:  "a.chk"
 B after Tr=     0.000000   -0.004397   -0.000003
         Rot=    1.000000   -0.000000    0.000000   -0.000000 Ang=  -0.00 deg.
 Initial guess <Sx>= 0.0000 <Sy>= 0.0000 <Sz>= 0.0000 <S**2>=-0.0000 S=-0.0000
 Requested convergence on RMS density matrix=1.00D-08 within  64 cycles.
 Requested convergence on MAX density matrix=1.00D-06.
 Requested convergence on             energy=1.00D-06.
 No special actions if energy rises.
 EnCoef did     4 forward-backward iterations
 SCF Done:  E(UPBE1PBE) =  -1212.12901341     A.U. after   17 cycles
            NFock= 17  Conv=0.75D-08     -V/T= 2.0551
 <Sx>= 0.0000 <Sy>= 0.0000 <Sz>= 0.0000 <S**2>=-0.0000 S=-0.0000
 <L.S>=  0.00000000000    
 Annihilation of the first spin contaminant:
 S**2 before annihilation    -0.0000,   after    -0.0000
 QCSCF skips out because SCF is already converged.

 **********************************************************************

            Population analysis using the SCF Density.

 **********************************************************************

 Alpha  occ. eigenvalues --  -14.45756 -14.45755 -14.44944 -14.44944 -10.28113
 Alpha  occ. eigenvalues --  -10.28112 -10.27610 -10.27609 -10.27518 -10.27518
 Alpha  occ. eigenvalues --  -10.27303 -10.27302 -10.24685 -10.24685 -10.24221
 Alpha  occ. eigenvalues --  -10.24221 -10.23894 -10.23894 -10.23451 -10.23451
 Alpha  occ. eigenvalues --  -10.23362 -10.23362 -10.21135 -10.21126 -10.20988
 Alpha  occ. eigenvalues --  -10.18629  -3.83557  -2.35293  -2.35216  -2.31578
 Alpha  occ. eigenvalues --   -1.06018  -1.05935  -0.97562  -0.97196  -0.88260
 Alpha  occ. eigenvalues --   -0.88009  -0.84577  -0.80484  -0.78913  -0.77906
 Alpha  occ. eigenvalues --   -0.77900  -0.75511  -0.75046  -0.72474  -0.71969
 Alpha  occ. eigenvalues --   -0.66622  -0.65409  -0.64582  -0.64045  -0.62638
 Alpha  occ. eigenvalues --   -0.61383  -0.58896  -0.57193  -0.56686  -0.54116
 Alpha  occ. eigenvalues --   -0.53066  -0.51820  -0.49836  -0.49772  -0.49195
 Alpha  occ. eigenvalues --   -0.48076  -0.47944  -0.47342  -0.46710  -0.46254
 Alpha  occ. eigenvalues --   -0.45780  -0.45308  -0.45146  -0.44716  -0.44099
 Alpha  occ. eigenvalues --   -0.42283  -0.41976  -0.40801  -0.38576  -0.38286
 Alpha  occ. eigenvalues --   -0.38259  -0.37516  -0.36964  -0.36958  -0.36723
 Alpha  occ. eigenvalues --   -0.35731  -0.34378  -0.34333  -0.33813  -0.31308
 Alpha  occ. eigenvalues --   -0.28980  -0.26630  -0.26153  -0.24816  -0.24394
 Alpha  occ. eigenvalues --   -0.24054  -0.20864  -0.20818  -0.20629  -0.16286
 Alpha  occ. eigenvalues --   -0.15659  -0.15340
 Alpha virt. eigenvalues --   -0.04772  -0.02446  -0.00635  -0.00045   0.00798
 Alpha virt. eigenvalues --    0.01356   0.02065   0.03400   0.05567   0.05855
 Alpha virt. eigenvalues --    0.06564   0.07374   0.09343   0.09393   0.10123
 Alpha virt. eigenvalues --    0.10822   0.12645   0.13138   0.14173   0.14197
 Alpha virt. eigenvalues --    0.15460   0.15824   0.15877   0.16113   0.16472
 Alpha virt. eigenvalues --    0.16921   0.17171   0.17922   0.18119   0.18320
 Alpha virt. eigenvalues --    0.19238   0.19465   0.19803   0.20434   0.22188
 Alpha virt. eigenvalues --    0.22290   0.22672   0.22954   0.23061   0.23679
 Alpha virt. eigenvalues --    0.26122   0.26433   0.26626   0.27715   0.28243
 Alpha virt. eigenvalues --    0.28454   0.29428   0.29659   0.31379   0.31718
 Alpha virt. eigenvalues --    0.32482   0.33387   0.34226   0.34450   0.34821
 Alpha virt. eigenvalues --    0.36580   0.37851   0.38180   0.39796   0.39920
 Alpha virt. eigenvalues --    0.41285   0.42881   0.44302   0.46118   0.46568
 Alpha virt. eigenvalues --    0.48078   0.48126   0.50801   0.51357   0.52214
 Alpha virt. eigenvalues --    0.52331   0.53617   0.53844   0.56031   0.56165
 Alpha virt. eigenvalues --    0.57048   0.57118   0.57120   0.58156   0.58719
 Alpha virt. eigenvalues --    0.58840   0.59186   0.59412   0.60265   0.61544
 Alpha virt. eigenvalues --    0.61580   0.62141   0.62975   0.63138   0.63219
 Alpha virt. eigenvalues --    0.63396   0.63618   0.63661   0.64389   0.64483
 Alpha virt. eigenvalues --    0.65412   0.65815   0.66438   0.67052   0.67247
 Alpha virt. eigenvalues --    0.67709   0.68067   0.68481   0.68549   0.71040
 Alpha virt. eigenvalues --    0.72293   0.72710   0.74247   0.76280   0.76533
 Alpha virt. eigenvalues --    0.76774   0.77521   0.78508   0.80212   0.80368
 Alpha virt. eigenvalues --    0.81270   0.82108   0.82750   0.83905   0.83995
 Alpha virt. eigenvalues --    0.84023   0.84781   0.85142   0.86000   0.86888
 Alpha virt. eigenvalues --    0.87314   0.87424   0.88414   0.89996   0.90687
 Alpha virt. eigenvalues --    0.91033   0.91488   0.91761   0.92528   0.92964
 Alpha virt. eigenvalues --    0.93617   0.94115   0.94837   0.95969   0.96010
 Alpha virt. eigenvalues --    0.96197   0.97314   0.98068   0.98229   0.98317
 Alpha virt. eigenvalues --    0.98366   1.00320   1.00334   1.02003   1.02200
 Alpha virt. eigenvalues --    1.03012   1.04191   1.04298   1.06403   1.07386
 Alpha virt. eigenvalues --    1.09280   1.10005   1.10643   1.11351   1.14375
 Alpha virt. eigenvalues --    1.14885   1.15314   1.16657   1.16774   1.18559
 Alpha virt. eigenvalues --    1.18738   1.19331   1.21562   1.23946   1.24111
 Alpha virt. eigenvalues --    1.24833   1.25592   1.27072   1.27432   1.29227
 Alpha virt. eigenvalues --    1.29363   1.30202   1.30785   1.33437   1.33982
 Alpha virt. eigenvalues --    1.34085   1.36028   1.36259   1.37673   1.39387
 Alpha virt. eigenvalues --    1.39759   1.41313   1.41501   1.42981   1.43311
 Alpha virt. eigenvalues --    1.44851   1.45038   1.45343   1.47186   1.47877
 Alpha virt. eigenvalues --    1.48084   1.49304   1.49994   1.49996   1.50998
 Alpha virt. eigenvalues --    1.51341   1.51908   1.54059   1.57094   1.58280
 Alpha virt. eigenvalues --    1.58655   1.61297   1.61450   1.65925   1.66365
 Alpha virt. eigenvalues --    1.66599   1.70473   1.72049   1.73243   1.75849
 Alpha virt. eigenvalues --    1.77444   1.78636   1.80167   1.80583   1.82183
 Alpha virt. eigenvalues --    1.82201   1.86069   1.87539   1.87739   1.88326
 Alpha virt. eigenvalues --    1.88573   1.89363   1.90914   1.91065   1.92356
 Alpha virt. eigenvalues --    1.94214   1.95455   1.95795   1.96667   1.97404
 Alpha virt. eigenvalues --    1.98044   1.98138   1.99188   2.00208   2.00230
 Alpha virt. eigenvalues --    2.00384   2.00743   2.02705   2.03428   2.03850
 Alpha virt. eigenvalues --    2.06651   2.07024   2.07939   2.09917   2.11504
 Alpha virt. eigenvalues --    2.13151   2.13347   2.14454   2.15326   2.15493
 Alpha virt. eigenvalues --    2.16391   2.16817   2.17471   2.18750   2.19806
 Alpha virt. eigenvalues --    2.20302   2.20859   2.21446   2.23148   2.23534
 Alpha virt. eigenvalues --    2.24531   2.24805   2.26024   2.26619   2.27614
 Alpha virt. eigenvalues --    2.28156   2.28157   2.28294   2.28780   2.28921
 Alpha virt. eigenvalues --    2.33177   2.35667   2.38602   2.40263   2.40981
 Alpha virt. eigenvalues --    2.41022   2.43900   2.44990   2.47105   2.47867
 Alpha virt. eigenvalues --    2.51831   2.52988   2.53101   2.57062   2.58880
 Alpha virt. eigenvalues --    2.59204   2.59757   2.60855   2.60931   2.63024
 Alpha virt. eigenvalues --    2.64327   2.65028   2.66438   2.68983   2.69657
 Alpha virt. eigenvalues --    2.70233   2.71198   2.72550   2.75413   2.75646
 Alpha virt. eigenvalues --    2.76069   2.76512   2.77373   2.78962   2.80233
 Alpha virt. eigenvalues --    2.83404   2.87756   2.87887   2.88292   2.88467
 Alpha virt. eigenvalues --    2.94173   2.94726   2.97652   2.98126   2.99528
 Alpha virt. eigenvalues --    3.02932   3.07097   3.07718   3.17203   3.20869
 Alpha virt. eigenvalues --    3.21379   3.30157   3.41502   3.46529   3.47211
 Alpha virt. eigenvalues --    3.53323   3.53707   3.62469   5.66404   5.66923
 Alpha virt. eigenvalues --    5.67692   5.68516   5.68755   5.69925   5.72148
 Alpha virt. eigenvalues --   45.81598  46.00641  46.04353  63.11347
  Beta  occ. eigenvalues --  -14.45756 -14.45755 -14.44944 -14.44944 -10.28113
  Beta  occ. eigenvalues --  -10.28112 -10.27610 -10.27609 -10.27518 -10.27518
  Beta  occ. eigenvalues --  -10.27303 -10.27302 -10.24685 -10.24685 -10.24221
  Beta  occ. eigenvalues --  -10.24221 -10.23894 -10.23894 -10.23451 -10.23451
  Beta  occ. eigenvalues --  -10.23362 -10.23362 -10.21135 -10.21126 -10.20988
  Beta  occ. eigenvalues --  -10.18629  -3.83557  -2.35293  -2.35216  -2.31578
  Beta  occ. eigenvalues --   -1.06018  -1.05935  -0.97562  -0.97196  -0.88260
  Beta  occ. eigenvalues --   -0.88009  -0.84577  -0.80484  -0.78913  -0.77906
  Beta  occ. eigenvalues --   -0.77900  -0.75511  -0.75046  -0.72474  -0.71969
  Beta  occ. eigenvalues --   -0.66622  -0.65409  -0.64582  -0.64045  -0.62638
  Beta  occ. eigenvalues --   -0.61383  -0.58896  -0.57193  -0.56686  -0.54116
  Beta  occ. eigenvalues --   -0.53066  -0.51820  -0.49836  -0.49772  -0.49195
  Beta  occ. eigenvalues --   -0.48076  -0.47944  -0.47342  -0.46710  -0.46254
  Beta  occ. eigenvalues --   -0.45780  -0.45308  -0.45146  -0.44716  -0.44099
  Beta  occ. eigenvalues --   -0.42283  -0.41976  -0.40801  -0.38576  -0.38286
  Beta  occ. eigenvalues --   -0.38259  -0.37516  -0.36964  -0.36958  -0.36723
  Beta  occ. eigenvalues --   -0.35731  -0.34378  -0.34333  -0.33813  -0.31308
  Beta  occ. eigenvalues --   -0.28980  -0.26630  -0.26153  -0.24816  -0.24394
  Beta  occ. eigenvalues --   -0.24054  -0.20864  -0.20818  -0.20629  -0.16286
  Beta  occ. eigenvalues --   -0.15659  -0.15340
  Beta virt. eigenvalues --   -0.04772  -0.02446  -0.00635  -0.00045   0.00798
  Beta virt. eigenvalues --    0.01356   0.02065   0.03400   0.05567   0.05855
  Beta virt. eigenvalues --    0.06564   0.07374   0.09343   0.09393   0.10123
  Beta virt. eigenvalues --    0.10822   0.12645   0.13138   0.14173   0.14197
  Beta virt. eigenvalues --    0.15460   0.15824   0.15877   0.16113   0.16472
  Beta virt. eigenvalues --    0.16921   0.17171   0.17922   0.18119   0.18320
  Beta virt. eigenvalues --    0.19238   0.19465   0.19803   0.20434   0.22188
  Beta virt. eigenvalues --    0.22290   0.22672   0.22954   0.23061   0.23679
  Beta virt. eigenvalues --    0.26122   0.26433   0.26626   0.27715   0.28243
  Beta virt. eigenvalues --    0.28454   0.29428   0.29659   0.31379   0.31718
  Beta virt. eigenvalues --    0.32482   0.33387   0.34226   0.34450   0.34821
  Beta virt. eigenvalues --    0.36580   0.37851   0.38180   0.39796   0.39920
  Beta virt. eigenvalues --    0.41285   0.42881   0.44302   0.46118   0.46568
  Beta virt. eigenvalues --    0.48078   0.48126   0.50801   0.51357   0.52214
  Beta virt. eigenvalues --    0.52331   0.53617   0.53844   0.56031   0.56165
  Beta virt. eigenvalues --    0.57048   0.57118   0.57120   0.58156   0.58719
  Beta virt. eigenvalues --    0.58840   0.59186   0.59412   0.60265   0.61544
  Beta virt. eigenvalues --    0.61580   0.62141   0.62975   0.63138   0.63219
  Beta virt. eigenvalues --    0.63396   0.63618   0.63661   0.64389   0.64483
  Beta virt. eigenvalues --    0.65412   0.65815   0.66438   0.67052   0.67247
  Beta virt. eigenvalues --    0.67709   0.68067   0.68481   0.68549   0.71040
  Beta virt. eigenvalues --    0.72293   0.72710   0.74247   0.76280   0.76533
  Beta virt. eigenvalues --    0.76774   0.77521   0.78508   0.80212   0.80368
  Beta virt. eigenvalues --    0.81270   0.82108   0.82750   0.83905   0.83995
  Beta virt. eigenvalues --    0.84023   0.84781   0.85142   0.86000   0.86888
  Beta virt. eigenvalues --    0.87314   0.87424   0.88414   0.89996   0.90687
  Beta virt. eigenvalues --    0.91033   0.91488   0.91761   0.92528   0.92964
  Beta virt. eigenvalues --    0.93617   0.94115   0.94837   0.95969   0.96010
  Beta virt. eigenvalues --    0.96197   0.97314   0.98068   0.98229   0.98317
  Beta virt. eigenvalues --    0.98366   1.00320   1.00334   1.02003   1.02200
  Beta virt. eigenvalues --    1.03012   1.04191   1.04298   1.06403   1.07386
  Beta virt. eigenvalues --    1.09280   1.10005   1.10643   1.11351   1.14375
  Beta virt. eigenvalues --    1.14885   1.15314   1.16657   1.16774   1.18559
  Beta virt. eigenvalues --    1.18738   1.19331   1.21562   1.23946   1.24111
  Beta virt. eigenvalues --    1.24833   1.25592   1.27072   1.27432   1.29227
  Beta virt. eigenvalues --    1.29363   1.30202   1.30785   1.33437   1.33982
  Beta virt. eigenvalues --    1.34085   1.36028   1.36259   1.37673   1.39387
  Beta virt. eigenvalues --    1.39759   1.41313   1.41501   1.42981   1.43311
  Beta virt. eigenvalues --    1.44851   1.45038   1.45343   1.47186   1.47877
  Beta virt. eigenvalues --    1.48084   1.49304   1.49994   1.49996   1.50998
  Beta virt. eigenvalues --    1.51341   1.51908   1.54059   1.57094   1.58280
  Beta virt. eigenvalues --    1.58655   1.61297   1.61450   1.65925   1.66365
  Beta virt. eigenvalues --    1.66599   1.70473   1.72049   1.73243   1.75849
  Beta virt. eigenvalues --    1.77444   1.78636   1.80167   1.80583   1.82183
  Beta virt. eigenvalues --    1.82201   1.86069   1.87539   1.87739   1.88326
  Beta virt. eigenvalues --    1.88573   1.89363   1.90914   1.91065   1.92356
  Beta virt. eigenvalues --    1.94214   1.95455   1.95795   1.96667   1.97404
  Beta virt. eigenvalues --    1.98044   1.98138   1.99188   2.00208   2.00230
  Beta virt. eigenvalues --    2.00384   2.00743   2.02705   2.03428   2.03850
  Beta virt. eigenvalues --    2.06651   2.07024   2.07939   2.09917   2.11504
  Beta virt. eigenvalues --    2.13151   2.13347   2.14454   2.15326   2.15493
  Beta virt. eigenvalues --    2.16391   2.16817   2.17471   2.18750   2.19806
  Beta virt. eigenvalues --    2.20302   2.20859   2.21446   2.23148   2.23534
  Beta virt. eigenvalues --    2.24531   2.24805   2.26024   2.26619   2.27614
  Beta virt. eigenvalues --    2.28156   2.28157   2.28294   2.28780   2.28921
  Beta virt. eigenvalues --    2.33177   2.35667   2.38602   2.40263   2.40981
  Beta virt. eigenvalues --    2.41022   2.43900   2.44990   2.47105   2.47867
  Beta virt. eigenvalues --    2.51831   2.52988   2.53101   2.57062   2.58880
  Beta virt. eigenvalues --    2.59204   2.59757   2.60855   2.60931   2.63024
  Beta virt. eigenvalues --    2.64327   2.65028   2.66438   2.68983   2.69657
  Beta virt. eigenvalues --    2.70233   2.71198   2.72550   2.75413   2.75646
  Beta virt. eigenvalues --    2.76069   2.76512   2.77373   2.78962   2.80233
  Beta virt. eigenvalues --    2.83404   2.87756   2.87887   2.88292   2.88467
  Beta virt. eigenvalues --    2.94173   2.94726   2.97652   2.98126   2.99528
  Beta virt. eigenvalues --    3.02932   3.07097   3.07718   3.17203   3.20869
  Beta virt. eigenvalues --    3.21379   3.30157   3.41502   3.46529   3.47211
  Beta virt. eigenvalues --    3.53323   3.53707   3.62469   5.66404   5.66923
  Beta virt. eigenvalues --    5.67692   5.68516   5.68755   5.69925   5.72148
  Beta virt. eigenvalues --   45.81598  46.00641  46.04353  63.11347
          Condensed to atoms (all electrons):
               1          2          3          4          5          6
     1  C    5.148139   0.507863  -0.062888  -0.052692  -0.062888   0.507861
     2  C    0.507863   4.658628   0.529062  -0.010409  -0.039814  -0.020132
     3  C   -0.062888   0.529062   5.037911   0.533580  -0.038582  -0.039814
     4  C   -0.052692  -0.010409   0.533580   4.898874   0.533577  -0.010410
     5  C   -0.062888  -0.039814  -0.038582   0.533577   5.037915   0.529063
     6  C    0.507861  -0.020132  -0.039814  -0.010410   0.529063   4.658625
     7  H    0.005606  -0.040588   0.344510  -0.040641   0.004401   0.000709
     8  H    0.001156   0.002401  -0.035629   0.366492  -0.035629   0.002401
     9  H    0.005606   0.000709   0.004401  -0.040641   0.344511  -0.040587
    10  C    0.007190  -0.000030   0.000003   0.000146  -0.005937  -0.050130
    11  C    0.009855   0.003133  -0.000073   0.000044   0.003260  -0.074174
    12  C   -0.000789   0.000002  -0.000000   0.000001   0.000087   0.007755
    13  C    0.000148   0.000001  -0.000002   0.000046   0.002388  -0.003845
    14  C    0.000000  -0.000000   0.000000  -0.000000   0.000002  -0.000011
    15  C    0.000002  -0.000000   0.000000  -0.000001   0.000084   0.000067
    16  H   -0.000029   0.000001   0.000001   0.000094   0.000172   0.000750
    17  C    0.000000   0.000000   0.000000   0.000000  -0.000001  -0.000005
    18  H   -0.000000   0.000000   0.000000   0.000000  -0.000000   0.000002
    19  H   -0.000000   0.000000  -0.000000   0.000000   0.000002  -0.000002
    20  H    0.000000  -0.000000   0.000000  -0.000000  -0.000000  -0.000000
    21  C    0.007190  -0.050130  -0.005937   0.000146   0.000003  -0.000030
    22  C    0.009854  -0.074174   0.003260   0.000044  -0.000073   0.003133
    23  C   -0.000789   0.007755   0.000087   0.000001  -0.000000   0.000002
    24  C    0.000148  -0.003845   0.002388   0.000046  -0.000002   0.000001
    25  C    0.000000  -0.000011   0.000002  -0.000000   0.000000  -0.000000
    26  C    0.000002   0.000067   0.000084  -0.000001   0.000000  -0.000000
    27  H   -0.000029   0.000750   0.000173   0.000094   0.000001   0.000001
    28  C    0.000000  -0.000005  -0.000001   0.000000   0.000000   0.000000
    29  H   -0.000000   0.000002  -0.000000   0.000000   0.000000   0.000000
    30  H   -0.000000  -0.000002   0.000002   0.000000  -0.000000   0.000000
    31  H    0.000000  -0.000000  -0.000000  -0.000000   0.000000  -0.000000
    32  N   -0.034378   0.252017  -0.071598   0.004516   0.000438   0.006501
    33  N    0.002040   0.006248  -0.000156   0.000002   0.000000  -0.000045
    34  N   -0.034378   0.006501   0.000438   0.004516  -0.071598   0.252020
    35  N    0.002040  -0.000045   0.000000   0.000002  -0.000156   0.006247
    36  C   -0.000014   0.000001   0.000000  -0.000000   0.000002  -0.000056
    37  H   -0.000001  -0.000000   0.000000   0.000000  -0.000000   0.000005
    38  H   -0.000001  -0.000000   0.000000   0.000000  -0.000000   0.000005
    39  H   -0.000016   0.000001   0.000000  -0.000000   0.000000  -0.000010
    40  C   -0.000014  -0.000056   0.000002  -0.000000   0.000000   0.000001
    41  H   -0.000001   0.000005  -0.000000   0.000000   0.000000  -0.000000
    42  H   -0.000001   0.000005  -0.000000   0.000000   0.000000  -0.000000
    43  H   -0.000016  -0.000010   0.000000  -0.000000   0.000000   0.000001
    44  Co   0.248342  -0.068647   0.006151   0.001574   0.006151  -0.068647
               7          8          9         10         11         12
     1  C    0.005606   0.001156   0.005606   0.007190   0.009855  -0.000789
     2  C   -0.040588   0.002401   0.000709  -0.000030   0.003133   0.000002
     3  C    0.344510  -0.035629   0.004401   0.000003  -0.000073  -0.000000
     4  C   -0.040641   0.366492  -0.040641   0.000146   0.000044   0.000001
     5  C    0.004401  -0.035629   0.344511  -0.005937   0.003260   0.000087
     6  C    0.000709   0.002401  -0.040587  -0.050130  -0.074174   0.007755
     7  H    0.573240  -0.004416  -0.000117  -0.000000  -0.000000   0.000000
     8  H   -0.004416   0.549772  -0.004416  -0.000003   0.000001  -0.000000
     9  H   -0.000117  -0.004416   0.573240   0.000295  -0.000195  -0.000039
    10  C   -0.000000  -0.000003   0.000295   4.647012  -0.066995   0.512777
    11  C   -0.000000   0.000001  -0.000195  -0.066995   4.819869  -0.054596
    12  C    0.000000  -0.000000  -0.000039   0.512777  -0.054596   4.666581
    13  C   -0.000000   0.000003  -0.000273   0.537369   0.004542  -0.057700
    14  C   -0.000000   0.000000   0.000000  -0.047940   0.004887   0.532890
    15  C   -0.000000   0.000000   0.000147  -0.006622  -0.000057  -0.037859
    16  H   -0.000000  -0.000010   0.006411  -0.032524  -0.000141   0.003635
    17  C    0.000000  -0.000000   0.000001  -0.038835  -0.000061  -0.009477
    18  H    0.000000  -0.000000  -0.000000   0.003817  -0.000202  -0.037652
    19  H    0.000000   0.000000  -0.000009   0.001968   0.000003   0.000937
    20  H   -0.000000  -0.000000   0.000000   0.000883   0.000003   0.002309
    21  C    0.000295  -0.000003  -0.000000  -0.000000  -0.000008   0.000000
    22  C   -0.000195   0.000001  -0.000000  -0.000008  -0.016484  -0.000002
    23  C   -0.000039  -0.000000   0.000000   0.000000  -0.000002  -0.000000
    24  C   -0.000273   0.000003  -0.000000   0.000000   0.000000  -0.000000
    25  C    0.000000   0.000000  -0.000000  -0.000000   0.000000   0.000000
    26  C    0.000147   0.000000  -0.000000  -0.000000  -0.000000   0.000000
    27  H    0.006411  -0.000010  -0.000000   0.000000   0.000000  -0.000000
    28  C    0.000001  -0.000000   0.000000   0.000000  -0.000000  -0.000000
    29  H   -0.000000  -0.000000   0.000000   0.000000   0.000000  -0.000000
    30  H   -0.000009   0.000000   0.000000   0.000000   0.000000   0.000000
    31  H    0.000000  -0.000000  -0.000000   0.000000   0.000000   0.000000
    32  N   -0.004066  -0.000103   0.000008   0.000000   0.000383   0.000000
    33  N    0.000000  -0.000000  -0.000000  -0.000000   0.000038   0.000000
    34  N    0.000008  -0.000103  -0.004066   0.259170   0.354498  -0.040372
    35  N   -0.000000  -0.000000   0.000000  -0.044262   0.307638   0.262591
    36  C   -0.000000   0.000000  -0.000000   0.005710  -0.044242  -0.049621
    37  H    0.000000  -0.000000   0.000000  -0.000138   0.000517  -0.001211
    38  H    0.000000  -0.000000   0.000000  -0.000138   0.000512  -0.001208
    39  H    0.000000   0.000000   0.000000   0.000013   0.000573   0.002678
    40  C   -0.000000   0.000000  -0.000000   0.000000   0.000017   0.000000
    41  H    0.000000  -0.000000   0.000000  -0.000000  -0.000000  -0.000000
    42  H    0.000000  -0.000000   0.000000  -0.000000  -0.000000  -0.000000
    43  H    0.000000   0.000000   0.000000   0.000000  -0.000003  -0.000000
    44  Co  -0.000480   0.000193  -0.000480   0.007020   0.354977   0.005749
              13         14         15         16         17         18
     1  C    0.000148   0.000000   0.000002  -0.000029   0.000000  -0.000000
     2  C    0.000001  -0.000000  -0.000000   0.000001   0.000000   0.000000
     3  C   -0.000002   0.000000   0.000000   0.000001   0.000000   0.000000
     4  C    0.000046  -0.000000  -0.000001   0.000094   0.000000   0.000000
     5  C    0.002388   0.000002   0.000084   0.000172  -0.000001  -0.000000
     6  C   -0.003845  -0.000011   0.000067   0.000750  -0.000005   0.000002
     7  H   -0.000000  -0.000000  -0.000000  -0.000000   0.000000   0.000000
     8  H    0.000003   0.000000   0.000000  -0.000010  -0.000000  -0.000000
     9  H   -0.000273   0.000000   0.000147   0.006411   0.000001  -0.000000
    10  C    0.537369  -0.047940  -0.006622  -0.032524  -0.038835   0.003817
    11  C    0.004542   0.004887  -0.000057  -0.000141  -0.000061  -0.000202
    12  C   -0.057700   0.532890  -0.037859   0.003635  -0.009477  -0.037652
    13  C    5.027028  -0.044528   0.508527   0.356001  -0.036142   0.000273
    14  C   -0.044528   5.028920  -0.037593   0.000431   0.517050   0.362922
    15  C    0.508527  -0.037593   4.897977  -0.035685   0.557326   0.003886
    16  H    0.356001   0.000431  -0.035685   0.507855   0.003657   0.000013
    17  C   -0.036142   0.517050   0.557326   0.003657   4.886582  -0.035341
    18  H    0.000273   0.362922   0.003886   0.000013  -0.035341   0.531477
    19  H   -0.035594   0.004013   0.368924  -0.003953  -0.036272  -0.000147
    20  H    0.003974  -0.037037  -0.036152  -0.000146   0.368389  -0.004131
    21  C    0.000000  -0.000000  -0.000000   0.000000   0.000000   0.000000
    22  C    0.000000   0.000000  -0.000000   0.000000  -0.000000   0.000000
    23  C   -0.000000   0.000000   0.000000  -0.000000  -0.000000  -0.000000
    24  C    0.000000  -0.000000   0.000000   0.000000   0.000000   0.000000
    25  C   -0.000000  -0.000000   0.000000  -0.000000  -0.000000   0.000000
    26  C    0.000000   0.000000  -0.000000  -0.000000  -0.000000   0.000000
    27  H    0.000000  -0.000000  -0.000000   0.000000   0.000000  -0.000000
    28  C    0.000000  -0.000000  -0.000000   0.000000   0.000000   0.000000
    29  H    0.000000   0.000000   0.000000  -0.000000   0.000000  -0.000000
    30  H   -0.000000  -0.000000   0.000000  -0.000000   0.000000   0.000000
    31  H   -0.000000   0.000000   0.000000  -0.000000   0.000000   0.000000
    32  N   -0.000000   0.000000   0.000000   0.000000   0.000000  -0.000000
    33  N    0.000000  -0.000000  -0.000000   0.000000   0.000000  -0.000000
    34  N   -0.077370   0.008966   0.005026  -0.005041  -0.000193  -0.000087
    35  N    0.009875  -0.082438  -0.000194  -0.000092   0.005349  -0.007108
    36  C   -0.000122  -0.002824   0.000010   0.000003  -0.000112   0.004158
    37  H   -0.000010   0.002758  -0.000002  -0.000000  -0.000005   0.000544
    38  H   -0.000010   0.002756  -0.000002  -0.000000  -0.000005   0.000543
    39  H    0.000006   0.000019  -0.000000  -0.000000   0.000001  -0.000033
    40  C    0.000000   0.000000  -0.000000   0.000000   0.000000  -0.000000
    41  H   -0.000000  -0.000000   0.000000  -0.000000   0.000000  -0.000000
    42  H   -0.000000  -0.000000   0.000000  -0.000000   0.000000  -0.000000
    43  H    0.000000   0.000000  -0.000000   0.000000  -0.000000   0.000000
    44  Co  -0.001356  -0.001355   0.000179   0.000033   0.000148   0.000013
              19         20         21         22         23         24
     1  C   -0.000000   0.000000   0.007190   0.009854  -0.000789   0.000148
     2  C    0.000000  -0.000000  -0.050130  -0.074174   0.007755  -0.003845
     3  C   -0.000000   0.000000  -0.005937   0.003260   0.000087   0.002388
     4  C    0.000000  -0.000000   0.000146   0.000044   0.000001   0.000046
     5  C    0.000002  -0.000000   0.000003  -0.000073  -0.000000  -0.000002
     6  C   -0.000002  -0.000000  -0.000030   0.003133   0.000002   0.000001
     7  H    0.000000  -0.000000   0.000295  -0.000195  -0.000039  -0.000273
     8  H    0.000000  -0.000000  -0.000003   0.000001  -0.000000   0.000003
     9  H   -0.000009   0.000000  -0.000000  -0.000000   0.000000  -0.000000
    10  C    0.001968   0.000883  -0.000000  -0.000008   0.000000   0.000000
    11  C    0.000003   0.000003  -0.000008  -0.016484  -0.000002   0.000000
    12  C    0.000937   0.002309   0.000000  -0.000002  -0.000000  -0.000000
    13  C   -0.035594   0.003974   0.000000   0.000000  -0.000000   0.000000
    14  C    0.004013  -0.037037  -0.000000   0.000000   0.000000  -0.000000
    15  C    0.368924  -0.036152  -0.000000  -0.000000   0.000000   0.000000
    16  H   -0.003953  -0.000146   0.000000   0.000000  -0.000000   0.000000
    17  C   -0.036272   0.368389   0.000000  -0.000000  -0.000000   0.000000
    18  H   -0.000147  -0.004131   0.000000   0.000000  -0.000000   0.000000
    19  H    0.531614  -0.004658   0.000000   0.000000   0.000000  -0.000000
    20  H   -0.004658   0.535419   0.000000   0.000000   0.000000  -0.000000
    21  C    0.000000   0.000000   4.647029  -0.066996   0.512776   0.537367
    22  C    0.000000   0.000000  -0.066996   4.819862  -0.054596   0.004542
    23  C    0.000000   0.000000   0.512776  -0.054596   4.666571  -0.057699
    24  C   -0.000000  -0.000000   0.537367   0.004542  -0.057699   5.027015
    25  C   -0.000000   0.000000  -0.047940   0.004887   0.532891  -0.044528
    26  C    0.000000   0.000000  -0.006622  -0.000057  -0.037859   0.508530
    27  H   -0.000000  -0.000000  -0.032525  -0.000141   0.003635   0.356002
    28  C    0.000000   0.000000  -0.038835  -0.000061  -0.009477  -0.036143
    29  H    0.000000   0.000000   0.003817  -0.000202  -0.037652   0.000273
    30  H    0.000000   0.000000   0.001968   0.000003   0.000937  -0.035594
    31  H    0.000000   0.000000   0.000883   0.000003   0.002309   0.003974
    32  N   -0.000000   0.000000   0.259173   0.354500  -0.040373  -0.077367
    33  N   -0.000000  -0.000000  -0.044262   0.307641   0.262591   0.009875
    34  N   -0.000092   0.000004   0.000000   0.000383   0.000000  -0.000000
    35  N    0.000004  -0.000099  -0.000000   0.000038   0.000000   0.000000
    36  C   -0.000000  -0.000002   0.000000   0.000017   0.000000   0.000000
    37  H   -0.000000  -0.000000  -0.000000  -0.000000  -0.000000  -0.000000
    38  H   -0.000000  -0.000000  -0.000000  -0.000000  -0.000000  -0.000000
    39  H   -0.000000  -0.000000   0.000000  -0.000003  -0.000000   0.000000
    40  C    0.000000  -0.000000   0.005710  -0.044242  -0.049621  -0.000122
    41  H   -0.000000  -0.000000  -0.000138   0.000512  -0.001207  -0.000010
    42  H   -0.000000  -0.000000  -0.000138   0.000518  -0.001211  -0.000010
    43  H   -0.000000   0.000000   0.000013   0.000573   0.002678   0.000006
    44  Co   0.000014  -0.000008   0.007020   0.354976   0.005750  -0.001356
              25         26         27         28         29         30
     1  C    0.000000   0.000002  -0.000029   0.000000  -0.000000  -0.000000
     2  C   -0.000011   0.000067   0.000750  -0.000005   0.000002  -0.000002
     3  C    0.000002   0.000084   0.000173  -0.000001  -0.000000   0.000002
     4  C   -0.000000  -0.000001   0.000094   0.000000   0.000000   0.000000
     5  C    0.000000   0.000000   0.000001   0.000000   0.000000  -0.000000
     6  C   -0.000000  -0.000000   0.000001   0.000000   0.000000   0.000000
     7  H    0.000000   0.000147   0.006411   0.000001  -0.000000  -0.000009
     8  H    0.000000   0.000000  -0.000010  -0.000000  -0.000000   0.000000
     9  H   -0.000000  -0.000000  -0.000000   0.000000   0.000000   0.000000
    10  C   -0.000000  -0.000000   0.000000   0.000000   0.000000   0.000000
    11  C    0.000000  -0.000000   0.000000  -0.000000   0.000000   0.000000
    12  C    0.000000   0.000000  -0.000000  -0.000000  -0.000000   0.000000
    13  C   -0.000000   0.000000   0.000000   0.000000   0.000000  -0.000000
    14  C   -0.000000   0.000000  -0.000000  -0.000000   0.000000  -0.000000
    15  C    0.000000  -0.000000  -0.000000  -0.000000   0.000000   0.000000
    16  H   -0.000000  -0.000000   0.000000   0.000000  -0.000000  -0.000000
    17  C   -0.000000  -0.000000   0.000000   0.000000   0.000000   0.000000
    18  H    0.000000   0.000000  -0.000000   0.000000  -0.000000   0.000000
    19  H   -0.000000   0.000000  -0.000000   0.000000   0.000000   0.000000
    20  H    0.000000   0.000000  -0.000000   0.000000   0.000000   0.000000
    21  C   -0.047940  -0.006622  -0.032525  -0.038835   0.003817   0.001968
    22  C    0.004887  -0.000057  -0.000141  -0.000061  -0.000202   0.000003
    23  C    0.532891  -0.037859   0.003635  -0.009477  -0.037652   0.000937
    24  C   -0.044528   0.508530   0.356002  -0.036143   0.000273  -0.035594
    25  C    5.028929  -0.037592   0.000431   0.517048   0.362921   0.004013
    26  C   -0.037592   4.897979  -0.035685   0.557324   0.003886   0.368922
    27  H    0.000431  -0.035685   0.507855   0.003657   0.000013  -0.003953
    28  C    0.517048   0.557324   0.003657   4.886580  -0.035341  -0.036272
    29  H    0.362921   0.003886   0.000013  -0.035341   0.531479  -0.000147
    30  H    0.004013   0.368922  -0.003953  -0.036272  -0.000147   0.531617
    31  H   -0.037037  -0.036152  -0.000146   0.368391  -0.004131  -0.004658
    32  N    0.008966   0.005026  -0.005041  -0.000193  -0.000087  -0.000092
    33  N   -0.082439  -0.000194  -0.000092   0.005349  -0.007108   0.000004
    34  N    0.000000   0.000000   0.000000   0.000000  -0.000000  -0.000000
    35  N   -0.000000  -0.000000   0.000000   0.000000  -0.000000  -0.000000
    36  C    0.000000  -0.000000   0.000000   0.000000  -0.000000   0.000000
    37  H   -0.000000   0.000000  -0.000000   0.000000  -0.000000  -0.000000
    38  H   -0.000000   0.000000  -0.000000   0.000000  -0.000000  -0.000000
    39  H    0.000000  -0.000000   0.000000  -0.000000   0.000000  -0.000000
    40  C   -0.002824   0.000010   0.000003  -0.000112   0.004158  -0.000000
    41  H    0.002756  -0.000002  -0.000000  -0.000005   0.000543  -0.000000
    42  H    0.002759  -0.000002  -0.000000  -0.000005   0.000544  -0.000000
    43  H    0.000019  -0.000000  -0.000000   0.000001  -0.000033  -0.000000
    44  Co  -0.001355   0.000179   0.000033   0.000148   0.000013   0.000014
              31         32         33         34         35         36
     1  C    0.000000  -0.034378   0.002040  -0.034378   0.002040  -0.000014
     2  C   -0.000000   0.252017   0.006248   0.006501  -0.000045   0.000001
     3  C   -0.000000  -0.071598  -0.000156   0.000438   0.000000   0.000000
     4  C   -0.000000   0.004516   0.000002   0.004516   0.000002  -0.000000
     5  C    0.000000   0.000438   0.000000  -0.071598  -0.000156   0.000002
     6  C   -0.000000   0.006501  -0.000045   0.252020   0.006247  -0.000056
     7  H    0.000000  -0.004066   0.000000   0.000008  -0.000000  -0.000000
     8  H   -0.000000  -0.000103  -0.000000  -0.000103  -0.000000   0.000000
     9  H   -0.000000   0.000008  -0.000000  -0.004066   0.000000  -0.000000
    10  C    0.000000   0.000000  -0.000000   0.259170  -0.044262   0.005710
    11  C    0.000000   0.000383   0.000038   0.354498   0.307638  -0.044242
    12  C    0.000000   0.000000   0.000000  -0.040372   0.262591  -0.049621
    13  C   -0.000000  -0.000000   0.000000  -0.077370   0.009875  -0.000122
    14  C    0.000000   0.000000  -0.000000   0.008966  -0.082438  -0.002824
    15  C    0.000000   0.000000  -0.000000   0.005026  -0.000194   0.000010
    16  H   -0.000000   0.000000   0.000000  -0.005041  -0.000092   0.000003
    17  C    0.000000   0.000000   0.000000  -0.000193   0.005349  -0.000112
    18  H    0.000000  -0.000000  -0.000000  -0.000087  -0.007108   0.004158
    19  H    0.000000  -0.000000  -0.000000  -0.000092   0.000004  -0.000000
    20  H    0.000000   0.000000  -0.000000   0.000004  -0.000099  -0.000002
    21  C    0.000883   0.259173  -0.044262   0.000000  -0.000000   0.000000
    22  C    0.000003   0.354500   0.307641   0.000383   0.000038   0.000017
    23  C    0.002309  -0.040373   0.262591   0.000000   0.000000   0.000000
    24  C    0.003974  -0.077367   0.009875  -0.000000   0.000000   0.000000
    25  C   -0.037037   0.008966  -0.082439   0.000000  -0.000000   0.000000
    26  C   -0.036152   0.005026  -0.000194   0.000000  -0.000000  -0.000000
    27  H   -0.000146  -0.005041  -0.000092   0.000000   0.000000   0.000000
    28  C    0.368391  -0.000193   0.005349   0.000000   0.000000   0.000000
    29  H   -0.004131  -0.000087  -0.007108  -0.000000  -0.000000  -0.000000
    30  H   -0.004658  -0.000092   0.000004  -0.000000  -0.000000   0.000000
    31  H    0.535414   0.000004  -0.000099   0.000000  -0.000000  -0.000000
    32  N    0.000004   7.183432  -0.062015  -0.000140   0.000001  -0.000000
    33  N   -0.000099  -0.062015   7.061534   0.000001  -0.000000  -0.000000
    34  N    0.000000  -0.000140   0.000001   7.183441  -0.062015   0.004653
    35  N   -0.000000   0.000001  -0.000000  -0.062015   7.061529   0.299852
    36  C   -0.000000  -0.000000  -0.000000   0.004653   0.299852   5.060579
    37  H   -0.000000   0.000000   0.000000  -0.000065  -0.043109   0.377607
    38  H   -0.000000   0.000000   0.000000  -0.000064  -0.043115   0.377613
    39  H    0.000000  -0.000000   0.000001   0.000155  -0.032096   0.376513
    40  C   -0.000002   0.004653   0.299850  -0.000000  -0.000000   0.000000
    41  H   -0.000000  -0.000064  -0.043113   0.000000   0.000000  -0.000000
    42  H   -0.000000  -0.000065  -0.043108   0.000000   0.000000  -0.000000
    43  H   -0.000000   0.000155  -0.032096  -0.000000   0.000001  -0.000001
    44  Co  -0.000008  -0.075070  -0.055251  -0.075070  -0.055252  -0.006459
              37         38         39         40         41         42
     1  C   -0.000001  -0.000001  -0.000016  -0.000014  -0.000001  -0.000001
     2  C   -0.000000  -0.000000   0.000001  -0.000056   0.000005   0.000005
     3  C    0.000000   0.000000   0.000000   0.000002  -0.000000  -0.000000
     4  C    0.000000   0.000000  -0.000000  -0.000000   0.000000   0.000000
     5  C   -0.000000  -0.000000   0.000000   0.000000   0.000000   0.000000
     6  C    0.000005   0.000005  -0.000010   0.000001  -0.000000  -0.000000
     7  H    0.000000   0.000000   0.000000  -0.000000   0.000000   0.000000
     8  H   -0.000000  -0.000000   0.000000   0.000000  -0.000000  -0.000000
     9  H    0.000000   0.000000   0.000000  -0.000000   0.000000   0.000000
    10  C   -0.000138  -0.000138   0.000013   0.000000  -0.000000  -0.000000
    11  C    0.000517   0.000512   0.000573   0.000017  -0.000000  -0.000000
    12  C   -0.001211  -0.001208   0.002678   0.000000  -0.000000  -0.000000
    13  C   -0.000010  -0.000010   0.000006   0.000000  -0.000000  -0.000000
    14  C    0.002758   0.002756   0.000019   0.000000  -0.000000  -0.000000
    15  C   -0.000002  -0.000002  -0.000000  -0.000000   0.000000   0.000000
    16  H   -0.000000  -0.000000  -0.000000   0.000000  -0.000000  -0.000000
    17  C   -0.000005  -0.000005   0.000001   0.000000   0.000000   0.000000
    18  H    0.000544   0.000543  -0.000033  -0.000000  -0.000000  -0.000000
    19  H   -0.000000  -0.000000  -0.000000   0.000000  -0.000000  -0.000000
    20  H   -0.000000  -0.000000  -0.000000  -0.000000  -0.000000  -0.000000
    21  C   -0.000000  -0.000000   0.000000   0.005710  -0.000138  -0.000138
    22  C   -0.000000  -0.000000  -0.000003  -0.044242   0.000512   0.000518
    23  C   -0.000000  -0.000000  -0.000000  -0.049621  -0.001207  -0.001211
    24  C   -0.000000  -0.000000   0.000000  -0.000122  -0.000010  -0.000010
    25  C   -0.000000  -0.000000   0.000000  -0.002824   0.002756   0.002759
    26  C    0.000000   0.000000  -0.000000   0.000010  -0.000002  -0.000002
    27  H   -0.000000  -0.000000   0.000000   0.000003  -0.000000  -0.000000
    28  C    0.000000   0.000000  -0.000000  -0.000112  -0.000005  -0.000005
    29  H   -0.000000  -0.000000   0.000000   0.004158   0.000543   0.000544
    30  H   -0.000000  -0.000000  -0.000000  -0.000000  -0.000000  -0.000000
    31  H   -0.000000  -0.000000   0.000000  -0.000002  -0.000000  -0.000000
    32  N    0.000000   0.000000  -0.000000   0.004653  -0.000064  -0.000065
    33  N    0.000000   0.000000   0.000001   0.299850  -0.043113  -0.043108
    34  N   -0.000065  -0.000064   0.000155  -0.000000   0.000000   0.000000
    35  N   -0.043109  -0.043115  -0.032096  -0.000000   0.000000   0.000000
    36  C    0.377607   0.377613   0.376513   0.000000  -0.000000  -0.000000
    37  H    0.526653  -0.040797  -0.024595  -0.000000   0.000000  -0.000000
    38  H   -0.040797   0.526655  -0.024602  -0.000000  -0.000000   0.000000
    39  H   -0.024595  -0.024602   0.468894  -0.000001   0.000000   0.000000
    40  C   -0.000000  -0.000000  -0.000001   5.060580   0.377614   0.377607
    41  H    0.000000  -0.000000   0.000000   0.377614   0.526648  -0.040796
    42  H   -0.000000   0.000000   0.000000   0.377607  -0.040796   0.526649
    43  H    0.000000   0.000000  -0.000026   0.376512  -0.024602  -0.024594
    44  Co   0.000565   0.000567   0.008132  -0.006459   0.000567   0.000565
              43         44
     1  C   -0.000016   0.248342
     2  C   -0.000010  -0.068647
     3  C    0.000000   0.006151
     4  C   -0.000000   0.001574
     5  C    0.000000   0.006151
     6  C    0.000001  -0.068647
     7  H    0.000000  -0.000480
     8  H    0.000000   0.000193
     9  H    0.000000  -0.000480
    10  C    0.000000   0.007020
    11  C   -0.000003   0.354977
    12  C   -0.000000   0.005749
    13  C    0.000000  -0.001356
    14  C    0.000000  -0.001355
    15  C   -0.000000   0.000179
    16  H    0.000000   0.000033
    17  C   -0.000000   0.000148
    18  H    0.000000   0.000013
    19  H   -0.000000   0.000014
    20  H    0.000000  -0.000008
    21  C    0.000013   0.007020
    22  C    0.000573   0.354976
    23  C    0.002678   0.005750
    24  C    0.000006  -0.001356
    25  C    0.000019  -0.001355
    26  C   -0.000000   0.000179
    27  H   -0.000000   0.000033
    28  C    0.000001   0.000148
    29  H   -0.000033   0.000013
    30  H   -0.000000   0.000014
    31  H   -0.000000  -0.000008
    32  N    0.000155  -0.075070
    33  N   -0.032096  -0.055251
    34  N   -0.000000  -0.075070
    35  N    0.000001  -0.055252
    36  C   -0.000001  -0.006459
    37  H    0.000000   0.000565
    38  H    0.000000   0.000567
    39  H   -0.000026   0.008132
    40  C    0.376512  -0.006459
    41  H   -0.024602   0.000567
    42  H   -0.024594   0.000565
    43  H    0.468894   0.008132
    44  Co   0.008132  16.455698
          Atomic-Atomic Spin Densities.
               1          2          3          4          5          6
     1  C   -0.000000   0.000000  -0.000000   0.000000  -0.000000   0.000000
     2  C    0.000000   0.000000  -0.000000  -0.000000  -0.000000   0.000000
     3  C   -0.000000  -0.000000  -0.000000   0.000000  -0.000000  -0.000000
     4  C    0.000000  -0.000000   0.000000  -0.000000   0.000000  -0.000000
     5  C   -0.000000  -0.000000  -0.000000   0.000000  -0.000000  -0.000000
     6  C    0.000000   0.000000  -0.000000  -0.000000  -0.000000   0.000000
     7  H   -0.000000   0.000000   0.000000   0.000000  -0.000000   0.000000
     8  H    0.000000   0.000000   0.000000  -0.000000   0.000000   0.000000
     9  H   -0.000000   0.000000  -0.000000   0.000000   0.000000   0.000000
    10  C   -0.000000  -0.000000   0.000000  -0.000000  -0.000000  -0.000000
    11  C    0.000000  -0.000000   0.000000  -0.000000   0.000000   0.000000
    12  C    0.000000   0.000000  -0.000000  -0.000000  -0.000000  -0.000000
    13  C   -0.000000  -0.000000   0.000000  -0.000000  -0.000000   0.000000
    14  C   -0.000000  -0.000000   0.000000  -0.000000  -0.000000   0.000000
    15  C   -0.000000  -0.000000   0.000000  -0.000000   0.000000   0.000000
    16  H    0.000000   0.000000  -0.000000  -0.000000  -0.000000  -0.000000
    17  C    0.000000   0.000000  -0.000000  -0.000000  -0.000000  -0.000000
    18  H    0.000000  -0.000000  -0.000000   0.000000   0.000000  -0.000000
    19  H    0.000000   0.000000  -0.000000   0.000000  -0.000000  -0.000000
    20  H   -0.000000  -0.000000   0.000000  -0.000000  -0.000000  -0.000000
    21  C   -0.000000  -0.000000  -0.000000  -0.000000   0.000000  -0.000000
    22  C    0.000000   0.000000   0.000000  -0.000000   0.000000  -0.000000
    23  C    0.000000  -0.000000  -0.000000  -0.000000  -0.000000   0.000000
    24  C   -0.000000   0.000000  -0.000000  -0.000000   0.000000  -0.000000
    25  C   -0.000000   0.000000  -0.000000  -0.000000   0.000000  -0.000000
    26  C   -0.000000   0.000000   0.000000  -0.000000   0.000000  -0.000000
    27  H    0.000000  -0.000000  -0.000000  -0.000000  -0.000000   0.000000
    28  C    0.000000  -0.000000  -0.000000  -0.000000  -0.000000   0.000000
    29  H    0.000000  -0.000000   0.000000   0.000000  -0.000000  -0.000000
    30  H    0.000000  -0.000000  -0.000000   0.000000  -0.000000   0.000000
    31  H   -0.000000  -0.000000  -0.000000  -0.000000   0.000000  -0.000000
    32  N   -0.000000  -0.000000  -0.000000   0.000000  -0.000000   0.000000
    33  N   -0.000000   0.000000  -0.000000  -0.000000   0.000000  -0.000000
    34  N   -0.000000   0.000000  -0.000000   0.000000  -0.000000  -0.000000
    35  N   -0.000000  -0.000000   0.000000  -0.000000  -0.000000   0.000000
    36  C   -0.000000   0.000000   0.000000  -0.000000   0.000000   0.000000
    37  H    0.000000  -0.000000  -0.000000   0.000000   0.000000  -0.000000
    38  H    0.000000  -0.000000  -0.000000   0.000000   0.000000  -0.000000
    39  H    0.000000   0.000000  -0.000000   0.000000  -0.000000  -0.000000
    40  C   -0.000000   0.000000   0.000000  -0.000000   0.000000   0.000000
    41  H    0.000000  -0.000000   0.000000   0.000000  -0.000000  -0.000000
    42  H    0.000000  -0.000000   0.000000   0.000000  -0.000000  -0.000000
    43  H    0.000000  -0.000000  -0.000000   0.000000  -0.000000   0.000000
    44  Co   0.000000  -0.000000   0.000000   0.000000   0.000000  -0.000000
               7          8          9         10         11         12
     1  C   -0.000000   0.000000  -0.000000  -0.000000   0.000000   0.000000
     2  C    0.000000   0.000000   0.000000  -0.000000  -0.000000   0.000000
     3  C    0.000000   0.000000  -0.000000   0.000000   0.000000  -0.000000
     4  C    0.000000  -0.000000   0.000000  -0.000000  -0.000000  -0.000000
     5  C   -0.000000   0.000000   0.000000  -0.000000   0.000000  -0.000000
     6  C    0.000000   0.000000   0.000000  -0.000000   0.000000  -0.000000
     7  H   -0.000000   0.000000  -0.000000   0.000000  -0.000000  -0.000000
     8  H    0.000000   0.000000   0.000000   0.000000  -0.000000  -0.000000
     9  H   -0.000000   0.000000  -0.000000   0.000000  -0.000000   0.000000
    10  C    0.000000   0.000000   0.000000   0.000000  -0.000000   0.000000
    11  C   -0.000000  -0.000000  -0.000000  -0.000000  -0.000000  -0.000000
    12  C   -0.000000  -0.000000   0.000000   0.000000  -0.000000   0.000000
    13  C    0.000000  -0.000000   0.000000  -0.000000  -0.000000  -0.000000
    14  C    0.000000  -0.000000   0.000000   0.000000   0.000000  -0.000000
    15  C   -0.000000  -0.000000   0.000000   0.000000   0.000000  -0.000000
    16  H    0.000000   0.000000   0.000000   0.000000  -0.000000   0.000000
    17  C    0.000000   0.000000   0.000000  -0.000000  -0.000000   0.000000
    18  H   -0.000000   0.000000  -0.000000  -0.000000  -0.000000   0.000000
    19  H    0.000000   0.000000   0.000000  -0.000000  -0.000000   0.000000
    20  H    0.000000  -0.000000   0.000000   0.000000   0.000000  -0.000000
    21  C    0.000000   0.000000   0.000000  -0.000000  -0.000000   0.000000
    22  C   -0.000000  -0.000000  -0.000000  -0.000000  -0.000000  -0.000000
    23  C    0.000000  -0.000000  -0.000000   0.000000  -0.000000  -0.000000
    24  C    0.000000  -0.000000   0.000000  -0.000000   0.000000   0.000000
    25  C    0.000000  -0.000000   0.000000  -0.000000   0.000000   0.000000
    26  C    0.000000  -0.000000  -0.000000  -0.000000  -0.000000   0.000000
    27  H    0.000000   0.000000   0.000000   0.000000  -0.000000  -0.000000
    28  C    0.000000   0.000000   0.000000   0.000000  -0.000000  -0.000000
    29  H   -0.000000   0.000000  -0.000000   0.000000  -0.000000  -0.000000
    30  H    0.000000   0.000000   0.000000   0.000000   0.000000  -0.000000
    31  H    0.000000  -0.000000   0.000000  -0.000000   0.000000   0.000000
    32  N   -0.000000   0.000000   0.000000   0.000000  -0.000000  -0.000000
    33  N    0.000000  -0.000000   0.000000  -0.000000   0.000000   0.000000
    34  N    0.000000   0.000000  -0.000000   0.000000   0.000000  -0.000000
    35  N    0.000000  -0.000000   0.000000  -0.000000   0.000000   0.000000
    36  C    0.000000  -0.000000  -0.000000  -0.000000   0.000000  -0.000000
    37  H   -0.000000   0.000000  -0.000000  -0.000000  -0.000000  -0.000000
    38  H   -0.000000   0.000000  -0.000000  -0.000000  -0.000000  -0.000000
    39  H   -0.000000   0.000000  -0.000000   0.000000  -0.000000  -0.000000
    40  C   -0.000000  -0.000000   0.000000  -0.000000   0.000000   0.000000
    41  H   -0.000000   0.000000  -0.000000   0.000000  -0.000000  -0.000000
    42  H   -0.000000   0.000000  -0.000000   0.000000  -0.000000  -0.000000
    43  H   -0.000000   0.000000  -0.000000   0.000000  -0.000000  -0.000000
    44  Co  -0.000000  -0.000000  -0.000000  -0.000000  -0.000000  -0.000000
              13         14         15         16         17         18
     1  C   -0.000000  -0.000000  -0.000000   0.000000   0.000000   0.000000
     2  C   -0.000000  -0.000000  -0.000000   0.000000   0.000000  -0.000000
     3  C    0.000000   0.000000   0.000000  -0.000000  -0.000000  -0.000000
     4  C   -0.000000  -0.000000  -0.000000  -0.000000  -0.000000   0.000000
     5  C   -0.000000  -0.000000   0.000000  -0.000000  -0.000000   0.000000
     6  C    0.000000   0.000000   0.000000  -0.000000  -0.000000  -0.000000
     7  H    0.000000   0.000000  -0.000000   0.000000   0.000000  -0.000000
     8  H   -0.000000  -0.000000  -0.000000   0.000000   0.000000   0.000000
     9  H    0.000000   0.000000   0.000000   0.000000   0.000000  -0.000000
    10  C   -0.000000   0.000000   0.000000   0.000000  -0.000000  -0.000000
    11  C   -0.000000   0.000000   0.000000  -0.000000  -0.000000  -0.000000
    12  C   -0.000000  -0.000000  -0.000000   0.000000   0.000000   0.000000
    13  C   -0.000000  -0.000000   0.000000  -0.000000   0.000000   0.000000
    14  C   -0.000000  -0.000000   0.000000   0.000000   0.000000  -0.000000
    15  C    0.000000   0.000000  -0.000000  -0.000000  -0.000000  -0.000000
[...]
 
              Baa    -0.0000    -0.000    -0.000    -0.000 -0.4969 -0.3323  0.8017
    41 H(1)   Bbb    -0.0000    -0.000    -0.000    -0.000 -0.6349  0.7690 -0.0748
              Bcc     0.0000     0.000     0.000     0.000  0.5916  0.5461  0.5931
 
              Baa    -0.0000    -0.000    -0.000    -0.000  0.5417  0.2957  0.7869
    42 H(1)   Bbb    -0.0000    -0.000    -0.000    -0.000 -0.6139  0.7786  0.1300
              Bcc     0.0000     0.000     0.000     0.000 -0.5742 -0.5535  0.6032
 
              Baa    -0.0000    -0.000    -0.000    -0.000  0.8986 -0.4387 -0.0112
    43 H(1)   Bbb     0.0000     0.000     0.000     0.000  0.0014 -0.0227  0.9997
              Bcc     0.0000     0.000     0.000     0.000  0.4389  0.8983  0.0198
 
              Baa    -0.0000    -0.000    -0.000    -0.000  1.0000 -0.0001  0.0004
    44 Co(59) Bbb     0.0000     0.000     0.000     0.000 -0.0004  0.0597  0.9982
              Bcc     0.0000     0.000     0.000     0.000  0.0001  0.9982 -0.0597
 

 ---------------------------------------------------------------------------------

   1 Symmetry operations used in ECPInt.
 ECPInt:  NShTT=   11781 NPrTT=   71406 LenC2=    9554 LenP2D=   32162.
 LDataN:  DoStor=T MaxTD1= 7 Len=  274
 Calling FoFJK, ICntrl=      2127 FMM=F ISym2X=0 I1Cent= 0 IOpClX= 1 NMat=1 NMatS=1 NMatT=0.
 -------------------------------------------------------------------
 Center     Atomic                   Forces (Hartrees/Bohr)
 Number     Number              X              Y              Z
 -------------------------------------------------------------------
      1        6           0.000003101   -0.053223048    0.000005075
      2        6           0.075212433    0.062844048   -0.000000983
      3        6          -0.005863495   -0.002718642   -0.000000052
      4        6           0.000002870   -0.003731107    0.000000403
      5        6           0.005858815   -0.002718157    0.000000807
      6        6          -0.075211623    0.062845719   -0.000004681
      7        1          -0.000296942    0.003092399    0.000000383
      8        1          -0.000000113   -0.002285043   -0.000000140
      9        1           0.000297645    0.003092528    0.000000303
     10        6          -0.019812564   -0.004813376    0.000000819
     11        6           0.007037682    0.007408171   -0.000006280
     12        6           0.018648423    0.003156193   -0.000000547
     13        6           0.019730664    0.005601835   -0.000000961
     14        6          -0.003293106    0.009997629    0.000000642
     15        6          -0.016075446    0.011069396    0.000000984
     16        1          -0.000667088   -0.000810862   -0.000000368
     17        6           0.001006621   -0.016323512   -0.000000047
     18        1           0.000663985   -0.001455202    0.000000010
     19        1           0.000952740    0.000486527    0.000000100
     20        1          -0.000444801    0.000388783   -0.000000181
     21        6           0.019806259   -0.004809145    0.000002344
     22        6          -0.007032176    0.007408259   -0.000007819
     23        6          -0.018639705    0.003167432   -0.000002661
     24        6          -0.019719084    0.005591918   -0.000001542
     25        6           0.003280255    0.009992851    0.000000080
     26        6           0.016062517    0.011074060    0.000000328
     27        1           0.000666979   -0.000808274   -0.000000059
     28        6          -0.000989908   -0.016323382    0.000000370
     29        1          -0.000662418   -0.001452087    0.000000146
     30        1          -0.000949005    0.000482448    0.000000165
     31        1           0.000436399    0.000387570   -0.000000203
     32        7          -0.053703994   -0.080425677    0.000001757
     33        7           0.029662040    0.029659316    0.000005881
     34        7           0.053697452   -0.080429931    0.000000419
     35        7          -0.029667322    0.029678090    0.000004038
     36        6           0.003026281   -0.016604052    0.000005951
     37        1          -0.000380631    0.000390888    0.001312923
     38        1          -0.000381969    0.000391880   -0.001318520
     39        1           0.001288518    0.002649321    0.000000528
     40        6          -0.003018966   -0.016593784    0.000001975
     41        1           0.000379758    0.000391548   -0.001315031
     42        1           0.000379879    0.000390014    0.001312369
     43        1          -0.001290638    0.002649660    0.000000902
     44       27          -0.000000321    0.031236797    0.000000371
 -------------------------------------------------------------------
 Cartesian Forces:  Max     0.080429931 RMS     0.019479417

 GradGradGradGradGradGradGradGradGradGradGradGradGradGradGradGradGradGrad
 Berny optimization.
 Search for a local minimum.
 Step number   1 out of a maximum of    2
 All quantities printed in internal units (Hartrees-Bohrs-Radians)
 Second derivative matrix not updated -- first step.
 ITU=  0
     Eigenvalues ---    0.00057   0.00062   0.00201   0.00250   0.00251
     Eigenvalues ---    0.00396   0.00455   0.00620   0.00678   0.00709
     Eigenvalues ---    0.00724   0.00842   0.00850   0.01327   0.01608
     Eigenvalues ---    0.01816   0.02013   0.02042   0.02556   0.02557
     Eigenvalues ---    0.03094   0.03216   0.04120   0.04220   0.04475
     Eigenvalues ---    0.04533   0.04702   0.05398   0.05535   0.06369
     Eigenvalues ---    0.06423   0.06893   0.06917   0.07011   0.07064
     Eigenvalues ---    0.07066   0.07320   0.07704   0.07776   0.09609
     Eigenvalues ---    0.10184   0.10450   0.10473   0.11679   0.11939
     Eigenvalues ---    0.11994   0.12334   0.12489   0.12873   0.13427
     Eigenvalues ---    0.13465   0.13590   0.13714   0.14811   0.15614
     Eigenvalues ---    0.15978   0.16074   0.19689   0.20398   0.21151
     Eigenvalues ---    0.21270   0.22279   0.24265   0.25760   0.29012
     Eigenvalues ---    0.29718   0.30523   0.31058   0.31133   0.31652
     Eigenvalues ---    0.32660   0.35020   0.37133   0.38180   0.38447
     Eigenvalues ---    0.38807   0.41441   0.42638   0.45764   0.48352
     Eigenvalues ---    0.48613   0.49032   0.49439   0.51813   0.53495
     Eigenvalues ---    0.54015   0.55522   0.58113   0.63782   0.69156
     Eigenvalues ---    0.71639   0.73634   0.74142   0.83285   0.88076
     Eigenvalues ---    0.90608   0.91837   0.92665   0.94246   0.95284
     Eigenvalues ---    0.95893   0.97658   1.01553   1.03678   1.13076
     Eigenvalues ---    1.16087   1.16165   1.18004   1.21692   1.25207
     Eigenvalues ---    1.30776   1.37895   1.38361   1.45803   1.48375
     Eigenvalues ---    1.51023   1.52407   1.53844   1.61829   1.64922
     Eigenvalues ---    1.66384   1.67301   1.78237   1.79167   1.91499
     Eigenvalues ---    1.94134
 Quadratic step=3.716D-01 exceeds max=3.000D-01 adjusted using Lamda=-2.442D-03.
 Angle between NR and scaled steps=  11.67 degrees.
 Angle between quadratic step and forces=  57.72 degrees.
 Linear search not attempted -- first point.
 B after Tr=     0.000000   -0.000749   -0.000003
         Rot=    1.000000   -0.000000   -0.000000   -0.000000 Ang=  -0.00 deg.
 Variable       Old X    -DE/DX   Delta X   Delta X   Delta X     New X
                                 (Linear)    (Quad)   (Total)
    X1       -0.00000   0.00000   0.00000   0.00000   0.00001   0.00000
    Y1        1.36546  -0.05322   0.00000  -0.07880  -0.07955   1.28590
    Z1        0.00011   0.00001   0.00000  -0.00001  -0.00001   0.00010
    X2       -2.36909   0.07521   0.00000   0.07307   0.07307  -2.29602
    Y2        2.52993   0.06284   0.00000   0.01075   0.01000   2.53993
    Z2        0.00007  -0.00000   0.00000   0.00000   0.00000   0.00007
    X3       -2.32882  -0.00586   0.00000   0.01449   0.01449  -2.31433
    Y3        5.18802  -0.00272   0.00000   0.00525   0.00450   5.19252
    Z3        0.00000  -0.00000   0.00000   0.00002   0.00002   0.00002
    X4       -0.00000   0.00000   0.00000  -0.00000  -0.00000  -0.00000
    Y4        6.44982  -0.00373   0.00000   0.00745   0.00670   6.45652
    Z4        0.00002   0.00000   0.00000   0.00002   0.00002   0.00004
    X5        2.32883   0.00586   0.00000  -0.01450  -0.01450   2.31433
    Y5        5.18802  -0.00272   0.00000   0.00525   0.00450   5.19252
    Z5        0.00010   0.00000   0.00000   0.00000  -0.00000   0.00010
    X6        2.36910  -0.07521   0.00000  -0.07307  -0.07307   2.29603
    Y6        2.52993   0.06285   0.00000   0.01075   0.01001   2.53993
    Z6        0.00016  -0.00000   0.00000  -0.00003  -0.00003   0.00013
    X7       -4.06507  -0.00030   0.00000   0.01302   0.01302  -4.05205
    Y7        6.27401   0.00309   0.00000   0.01299   0.01224   6.28625
    Z7       -0.00008   0.00000   0.00000   0.00005   0.00004  -0.00004
    X8        0.00000  -0.00000   0.00000  -0.00000  -0.00000  -0.00000
    Y8        8.50833  -0.00229   0.00000   0.00090   0.00015   8.50848
    Z8       -0.00002  -0.00000   0.00000   0.00003   0.00003   0.00001
    X9        4.06508   0.00030   0.00000  -0.01303  -0.01303   4.05205
    Y9        6.27401   0.00309   0.00000   0.01300   0.01225   6.28626
    Z9        0.00010   0.00000   0.00000   0.00002   0.00002   0.00011
   X10        6.92421  -0.01981   0.00000  -0.03358  -0.03358   6.89064
   Y10        1.09748  -0.00481   0.00000  -0.01728  -0.01802   1.07946
   Z10       -0.00004   0.00000   0.00000  -0.00001  -0.00002  -0.00006
   X11        3.56746   0.00704   0.00000  -0.03310  -0.03310   3.53436
   Y11       -1.70509   0.00741   0.00000  -0.00029  -0.00104  -1.70614
   Z11        0.00018  -0.00001   0.00000  -0.00004  -0.00004   0.00014
   X12        7.85369   0.01865   0.00000  -0.01684  -0.01684   7.83685
   Y12       -1.40372   0.00316   0.00000   0.00490   0.00415  -1.39957
   Z12       -0.00018  -0.00000   0.00000   0.00001   0.00000  -0.00018
   X13        8.53400   0.01973   0.00000  -0.02503  -0.02503   8.50897
   Y13        3.13948   0.00560   0.00000   0.00282   0.00208   3.14156
   Z13       -0.00010  -0.00000   0.00000  -0.00002  -0.00002  -0.00012
   X14       10.44187  -0.00329   0.00000  -0.03029  -0.03029  10.41158
   Y14       -1.89913   0.01000   0.00000   0.00806   0.00731  -1.89182
   Z14       -0.00039   0.00000   0.00000   0.00003   0.00003  -0.00036
   X15       11.15360  -0.01608   0.00000  -0.04831  -0.04831  11.10529
   Y15        2.63874   0.01107   0.00000   0.01118   0.01043   2.64917
   Z15       -0.00032   0.00000   0.00000  -0.00000  -0.00000  -0.00032
   X16        7.85964  -0.00067   0.00000  -0.03800  -0.03800   7.82164
   Y16        5.07241  -0.00081   0.00000  -0.00339  -0.00414   5.06827
   Z16        0.00003  -0.00000   0.00000  -0.00004  -0.00004  -0.00001
   X17       12.07465   0.00101   0.00000  -0.03591  -0.03591  12.03874
   Y17        0.19414  -0.01632   0.00000  -0.00755  -0.00830   0.18584
   Z17       -0.00046  -0.00000   0.00000   0.00002   0.00002  -0.00044
   X18       11.16262   0.00066   0.00000  -0.02825  -0.02825  11.13437
   Y18       -3.81452  -0.00146   0.00000   0.00395   0.00320  -3.81132
   Z18       -0.00047   0.00000   0.00000   0.00005   0.00004  -0.00043
   X19       12.45256   0.00095   0.00000  -0.04377  -0.04377  12.40879
   Y19        4.22366   0.00049   0.00000   0.01120   0.01045   4.23411
   Z19       -0.00037   0.00000   0.00000  -0.00000  -0.00001  -0.00038
   X20       14.10208  -0.00044   0.00000  -0.03637  -0.03637  14.06570
   Y20       -0.13438   0.00039   0.00000  -0.00303  -0.00378  -0.13817
   Z20       -0.00061  -0.00000   0.00000   0.00003   0.00003  -0.00058
   X21       -6.92420   0.01981   0.00000   0.03357   0.03357  -6.89063
   Y21        1.09747  -0.00481   0.00000  -0.01727  -0.01802   1.07945
   Z21       -0.00008   0.00000   0.00000   0.00001   0.00001  -0.00007
   X22       -3.56746  -0.00703   0.00000   0.03311   0.03311  -3.53435
   Y22       -1.70509   0.00741   0.00000  -0.00030  -0.00105  -1.70615
   Z22        0.00011  -0.00001   0.00000  -0.00003  -0.00003   0.00008
   X23       -7.85369  -0.01864   0.00000   0.01685   0.01685  -7.83684
   Y23       -1.40374   0.00317   0.00000   0.00491   0.00416  -1.39958
   Z23       -0.00011  -0.00000   0.00000  -0.00000  -0.00000  -0.00012
   X24       -8.53401  -0.01972   0.00000   0.02505   0.02505  -8.50896
   Y24        3.13948   0.00559   0.00000   0.00282   0.00207   3.14155
   Z24       -0.00009  -0.00000   0.00000  -0.00001  -0.00001  -0.00010
   X25      -10.44185   0.00328   0.00000   0.03028   0.03028 -10.41157
   Y25       -1.89914   0.00999   0.00000   0.00806   0.00731  -1.89183
   Z25       -0.00019   0.00000   0.00000  -0.00000  -0.00000  -0.00019
   X26      -11.15359   0.01606   0.00000   0.04831   0.04831 -11.10528
   Y26        2.63872   0.01107   0.00000   0.01118   0.01043   2.64915
   Z26       -0.00018   0.00000   0.00000  -0.00001  -0.00001  -0.00019
   X27       -7.85964   0.00067   0.00000   0.03801   0.03801  -7.82163
   Y27        5.07240  -0.00081   0.00000  -0.00339  -0.00414   5.06826
   Z27       -0.00004  -0.00000   0.00000  -0.00001  -0.00001  -0.00006
   X28      -12.07466  -0.00099   0.00000   0.03592   0.03592 -12.03873
   Y28        0.19413  -0.01632   0.00000  -0.00755  -0.00830   0.18583
   Z28       -0.00023   0.00000   0.00000  -0.00000  -0.00000  -0.00024
   X29      -11.16261  -0.00066   0.00000   0.02824   0.02824 -11.13437
   Y29       -3.81454  -0.00145   0.00000   0.00395   0.00320  -3.81134
   Z29       -0.00021   0.00000   0.00000   0.00000   0.00000  -0.00021
   X30      -12.45256  -0.00095   0.00000   0.04378   0.04378 -12.40878
   Y30        4.22365   0.00048   0.00000   0.01120   0.01045   4.23409
   Z30       -0.00021   0.00000   0.00000  -0.00001  -0.00001  -0.00021
   X31      -14.10206   0.00044   0.00000   0.03636   0.03636 -14.06570
   Y31       -0.13440   0.00039   0.00000  -0.00303  -0.00378  -0.13819
   Z31       -0.00028  -0.00000   0.00000  -0.00000  -0.00001  -0.00029
   X32       -4.28819  -0.05370   0.00000   0.00738   0.00738  -4.28081
   Y32        0.90488  -0.08043   0.00000  -0.07346  -0.07421   0.83068
   Z32        0.00003   0.00000   0.00000   0.00001   0.00000   0.00004
   X33       -5.83376   0.02966   0.00000   0.06023   0.06023  -5.77353
   Y33       -3.02767   0.02966   0.00000   0.03176   0.03101  -2.99665
   Z33       -0.00008   0.00001   0.00000   0.00002   0.00001  -0.00006
   X34        4.28821   0.05370   0.00000  -0.00739  -0.00739   4.28082
   Y34        0.90489  -0.08043   0.00000  -0.07346  -0.07421   0.83069
   Z34        0.00016   0.00000   0.00000  -0.00003  -0.00003   0.00013
   X35        5.83377  -0.02967   0.00000  -0.06023  -0.06023   5.77354
   Y35       -3.02768   0.02968   0.00000   0.03178   0.03103  -2.99665
   Z35       -0.00007   0.00000   0.00000   0.00000  -0.00000  -0.00007
   X36        5.99732   0.00303   0.00000  -0.04763  -0.04763   5.94969
   Y36       -5.70155  -0.01660   0.00000   0.00106   0.00031  -5.70123
   Z36       -0.00000   0.00001   0.00000   0.00001   0.00000  -0.00000
   X37        6.99859  -0.00038   0.00000  -0.05022  -0.05022   6.94837
   Y37       -6.38204   0.00039   0.00000  -0.00033  -0.00108  -6.38312
   Z37       -1.68686   0.00131   0.00000   0.00381   0.00381  -1.68305
   X38        6.99780  -0.00038   0.00000  -0.05017  -0.05017   6.94762
   Y38       -6.38203   0.00039   0.00000  -0.00035  -0.00110  -6.38313
   Z38        1.68735  -0.00132   0.00000  -0.00385  -0.00385   1.68350
   X39        4.09260   0.00129   0.00000  -0.05214  -0.05214   4.04047
   Y39       -6.50779   0.00265   0.00000   0.02897   0.02822  -6.47957
   Z39       -0.00046   0.00000   0.00000   0.00003   0.00002  -0.00043
   X40       -5.99731  -0.00302   0.00000   0.04764   0.04764  -5.94968
   Y40       -5.70156  -0.01659   0.00000   0.00106   0.00031  -5.70125
   Z40        0.00007   0.00000   0.00000   0.00002   0.00002   0.00009
   X41       -6.99766   0.00038   0.00000   0.05016   0.05016  -6.94750
   Y41       -6.38202   0.00039   0.00000  -0.00033  -0.00107  -6.38309
   Z41        1.68750  -0.00132   0.00000  -0.00382  -0.00383   1.68367
   X42       -6.99868   0.00038   0.00000   0.05022   0.05022  -6.94846
   Y42       -6.38207   0.00039   0.00000  -0.00034  -0.00109  -6.38316
   Z42       -1.68671   0.00131   0.00000   0.00383   0.00382  -1.68289
   X43       -4.09258  -0.00129   0.00000   0.05213   0.05213  -4.04045
   Y43       -6.50779   0.00265   0.00000   0.02897   0.02822  -6.47958
   Z43       -0.00051   0.00000   0.00000   0.00006   0.00005  -0.00045
   X44        0.00001  -0.00000   0.00000   0.00000   0.00000   0.00001
   Y44       -2.26086   0.03124   0.00000   0.04895   0.04820  -2.21266
   Z44        0.00022   0.00000   0.00000  -0.00003  -0.00004   0.00018
         Item               Value     Threshold  Converged?
 Maximum Force            0.080430     0.000450     NO 
 RMS     Force            0.019479     0.000300     NO 
 Maximum Displacement     0.079554     0.001800     NO 
 RMS     Displacement     0.026178     0.001200     NO 
 Predicted change in Energy=-1.808816D-02
 GradGradGradGradGradGradGradGradGradGradGradGradGradGradGradGradGradGrad

 Unable to Open any file for archive entry.
 1\1\GINC-X11P1N5\Force\UPBE1PBE\GenECP\C22H17Co1N4\MAYUMIAO\17-Jul-202
 4\0\\# pbe1pbe em=gd3bj genecp g09default scf=(xqc,maxcycle=64) force 
 guess=read nosymm\\Title Card\\0,1\C,-0.00000075,0.72256914,0.00005726
 \C,-1.25367026,1.33877966,0.00003482\C,-1.23236107,2.74538162,0.000002
 62\C,-0.00000034,3.41309562,0.00001296\C,1.23236553,2.74538084,0.00005
 344\C,1.25367264,1.33877893,0.00008623\H,-2.15114422,3.32006271,-0.000
 04448\H,0.00000064,4.50241506,-0.00001192\H,2.15114589,3.32006415,0.00
 005093\C,3.66413565,0.58076352,-0.00002022\C,1.88781867,-0.90229601,0.
 00009583\C,4.15599453,-0.74281695,-0.0000953\C,4.5160003,1.66134321,-0
 .00005459\C,5.52559836,-1.00497708,-0.00020379\C,5.90223089,1.39636057
 ,-0.00016691\H,4.15914172,2.68420214,0.00001405\C,6.38962911,0.1027358
 9,-0.00024252\H,5.90700472,-2.01855833,-0.00025102\H,6.58961122,2.2350
 6414,-0.00019563\H,7.46249729,-0.07111339,-0.00032248\C,-3.6641293,0.5
 8075741,-0.0000401\C,-1.88781723,-0.90229688,0.00005923\C,-4.15599264,
 -0.74282672,-0.0000593\C,-4.51600357,1.66134179,-0.0000495\C,-5.525588
 09,-1.0049821,-0.00010101\C,-5.90222365,1.3963496,-0.00009544\H,-4.159
 14162,2.68419583,-0.00002152\C,-6.38963299,0.10272667,-0.0001228\H,-5.
 90699768,-2.01856796,-0.00011125\H,-6.58961274,2.23505709,-0.00010851\
 H,-7.46248769,-0.07112352,-0.00015036\N,-2.26921364,0.47884227,0.00001
 785\N,-3.08709042,-1.60217328,-0.00004092\N,2.26922191,0.47884864,0.00
 008478\N,3.08709977,-1.60217864,-0.00003795\C,3.17364706,-3.01712818,-
 0.00000161\H,3.70349217,-3.37722869,-0.8926491\H,3.70307534,-3.3772262
 4,0.89290838\H,2.16571303,-3.44377391,-0.00024151\C,-3.17364124,-3.017
 13694,0.00003881\H,-3.70300336,-3.37721802,0.89298586\H,-3.70354192,-3
 .37724517,-0.89256953\H,-2.16570103,-3.44377598,-0.00026802\Co,0.00000
 496,-1.19639553,0.00011419\\Version=ES64L-G16RevC.01\HF=-1212.1290134\
 S2=0.\S2-1=0.\S2A=0.\RMSD=7.481e-09\RMSF=1.948e-02\Dipole=-0.0000512,-
 1.511853,-0.0000613\Quadrupole=13.3734847,7.1080584,-20.4815431,0.0002
 094,-0.0003453,0.0000377\PG=C01 [X(C22H17Co1N4)]\\@
 The archive entry for this job was punched.


 ... UNTIL SCIENCE IS MIXED WITH EMOTION AND APPEALS TO THE HEART AND
 IMAGINATION , IT IS LIKE DEAD INORGANIC MATTER; AND WHEN IT IS SO MIXED
 AND SO TRANSFORMED IT IS LITERATURE.

                                  -- JOHN BURROUGHS
 Job cpu time:       0 days  0 hours 29 minutes 28.6 seconds.
 Elapsed time:       0 days  0 hours  0 minutes 32.2 seconds.
 File lengths (MBytes):  RWF=    184 Int=      0 D2E=      0 Chk=    162 Scr=      1
 Normal termination of Gaussian 16 at Wed Jul 17 20:37:06 2024.
