 Entering Gaussian System, Link 0=g16
 Input=JOBS/1_B.gjf
 Output=JOBS/1_B.log
 Initial command:
 /data/app/gaussian/C01-avx2//g16/l1.exe "/tmp/Gau-2033132.inp" -scrdir="/tmp/"
 Entering Link 1 = /data/app/gaussian/C01-avx2//g16/l1.exe PID=   2033133.
  
 Copyright (c) 1988-2019, Gaussian, Inc.  All Rights Reserved.
  
 This is part of the Gaussian(R) 16 program.  It is based on
 the Gaussian(R) 09 system (copyright 2009, Gaussian, Inc.),
 the Gaussian(R) 03 system (copyright 2003, Gaussian, Inc.),
 the Gaussian(R) 98 system (copyright 1998, Gaussian, Inc.),
 the Gaussian(R) 94 system (copyright 1995, Gaussian, Inc.),
 the Gaussian 92(TM) system (copyright 1992, Gaussian, Inc.),
 the Gaussian 90(TM) system (copyright 1990, Gaussian, Inc.),
 the Gaussian 88(TM) system (copyright 1988, Gaussian, Inc.),
 the Gaussian 86(TM) system (copyright 1986, Carnegie Mellon
 University), and the Gaussian 82(TM) system (copyright 1983,
 Carnegie Mellon University). Gaussian is a federally registered
 trademark of Gaussian, Inc.
  
 This software contains proprietary and confidential information,
 including trade secrets, belonging to Gaussian, Inc.
  
 This software is provided under written license and may be
 used, copied, transmitted, or stored only in accord with that
 written license.
  
 The following legend is applicable only to US Government
 contracts under FAR:
  
                    RESTRICTED RIGHTS LEGEND
  
 Use, reproduction and disclosure by the US Government is
 subject to restrictions as set forth in subparagraphs (a)
 and (c) of the Commercial Computer Software - Restricted
 Rights clause in FAR 52.227-19.
  
 Gaussian, Inc.
 340 Quinnipiac St., Bldg. 40, Wallingford CT 06492
  
  
 ---------------------------------------------------------------
 Warning -- This program may not be used in any manner that
 competes with the business of Gaussian, Inc. or will provide
 assistance to any competitor of Gaussian, Inc.  The licensee
 of this program is prohibited from giving any competitor of
 Gaussian, Inc. access to this program.  By using this program,
 the user acknowledges that Gaussian, Inc. is engaged in the
 business of creating and licensing software in the field of
 computational chemistry and represents and warrants to the
 licensee that it is not a competitor of Gaussian, Inc. and that
 it will not use this program in any manner prohibited above.
 ---------------------------------------------------------------
  

 Cite this work as:
 Gaussian 16, Revision C.01,
 M. J. Frisch, G. W. Trucks, H. B. Schlegel, G. E. Scuseria, 
 M. A. Robb, J. R. Cheeseman, G. Scalmani, V. Barone, 
 G. A. Petersson, H. Nakatsuji, X. Li, M. Caricato, A. V. Marenich, 
 J. Bloino, B. G. Janesko, R. Gomperts, B. Mennucci, H. P. Hratchian, 
 J. V. Ortiz, A. F. Izmaylov, J. L. Sonnenberg, D. Williams-Young, 
 F. Ding, F. Lipparini, F. Egidi, J. Goings, B. Peng, A. Petrone, 
 T. Henderson, D. Ranasinghe, V. G. Zakrzewski, J. Gao, N. Rega, 
 G. Zheng, W. Liang, M. Hada, M. Ehara, K. Toyota, R. Fukuda, 
 J. Hasegawa, M. Ishida, T. Nakajima, Y. Honda, O. Kitao, H. Nakai, 
 T. Vreven, K. Throssell, J. A. Montgomery, Jr., J. E. Peralta, 
 F. Ogliaro, M. J. Bearpark, J. J. Heyd, E. N. Brothers, K. N. Kudin, 
 V. N. Staroverov, T. A. Keith, R. Kobayashi, J. Normand, 
 K. Raghavachari, A. P. Rendell, J. C. Burant, S. S. Iyengar, 
 J. Tomasi, M. Cossi, J. M. Millam, M. Klene, C. Adamo, R. Cammi, 
 J. W. Ochterski, R. L. Martin, K. Morokuma, O. Farkas, 
 J. B. Foresman, and D. J. Fox, Gaussian, Inc., Wallingford CT, 2019.
 
 ******************************************
 Gaussian 16:  ES64L-G16RevC.01  3-Jul-2019
                17-Jul-2024 
 ******************************************
 %chk=b.chk
 %nprocshared=56
 Will use up to   56 processors via shared memory.
 %mem=96gb
 ----------------------------------------------------------------------
 # pbe1pbe em=gd3bj genecp g09default scf=(xqc,maxcycle=64) force guess
 =read nosymm
 ----------------------------------------------------------------------
 1/10=7,30=1,38=1,158=3,167=1/1,3;
 2/12=2,15=1,17=6,18=5,40=1/2;
 3/5=7,11=2,16=1,17=8,25=1,27=10,30=1,71=1,74=-13,75=-4,116=-2,124=41,158=3/1,2,3;
 4/5=1,60=-1/1;
 5/5=2,7=64,8=3,13=1,38=6,87=10/2,8;
 6/7=2,8=2,9=2,10=2,28=1,87=10/1;
 7/29=1,30=1,87=10/1,2,3,16;
 1/10=7,30=1,158=3,167=1/3;
 99//99;
 Using 2006 physical constants.
 ----------
 Title Card
 ----------
 Symbolic Z-matrix:
 Charge =  0 Multiplicity = 3
 6                    0.         0.72257   0.00006 
 6                    -1.25367   1.33878   0.00003 
 6                    -1.23236   2.74538   0. 
 6                    0.         3.4131    0.00001 
 6                     1.23237   2.74538   0.00005 
 6                     1.25367   1.33878   0.00009 
 1                    -2.15114   3.32006  -0.00004 
 1                     0.        4.50242  -0.00001 
 1                     2.15115   3.32006   0.00005 
 6                     3.66414   0.58076  -0.00002 
 6                     1.88782  -0.9023    0.0001 
 6                     4.15599  -0.74282  -0.0001 
 6                     4.516     1.66134  -0.00005 
 6                     5.5256   -1.00498  -0.0002 
 6                     5.90223   1.39636  -0.00017 
 1                     4.15914   2.6842    0.00001 
 6                     6.38963   0.10274  -0.00024 
 1                     5.907    -2.01856  -0.00025 
 1                     6.58961   2.23506  -0.0002 
 1                     7.4625   -0.07111  -0.00032 
 6                    -3.66413   0.58076  -0.00004 
 6                    -1.88782  -0.9023    0.00006 
 6                    -4.15599  -0.74283  -0.00006 
 6                    -4.516     1.66134  -0.00005 
 6                    -5.52559  -1.00498  -0.0001 
 6                    -5.90222   1.39635  -0.0001 
 1                    -4.15914   2.6842   -0.00002 
 6                    -6.38963   0.10273  -0.00012 
 1                    -5.907    -2.01857  -0.00011 
 1                    -6.58961   2.23506  -0.00011 
 1                    -7.46249  -0.07112  -0.00015 
 7                    -2.26921   0.47884   0.00002 
 7                    -3.08709  -1.60217  -0.00004 
 7                     2.26922   0.47885   0.00008 
 7                     3.0871   -1.60218  -0.00004 
 6                     3.17365  -3.01713  0. 
 1                     3.70349  -3.37723  -0.89265 
 1                     3.70308  -3.37723   0.89291 
 1                     2.16571  -3.44377  -0.00024 
 6                    -3.17364  -3.01714   0.00004 
 1                    -3.703    -3.37722   0.89299 
 1                    -3.70354  -3.37725  -0.89257 
 1                    -2.1657   -3.44378  -0.00027 
 27                    0.       -1.1964    0.00011 
 

 GradGradGradGradGradGradGradGradGradGradGradGradGradGradGradGradGradGrad
 Berny optimization.
 Initialization pass.
 Trust Radius=3.00D-01 FncErr=1.00D-07 GrdErr=1.00D-07 EigMax=2.50D+02 EigMin=1.00D-04
 Number of steps in this run=      2 maximum allowed number of steps=      2.
 GradGradGradGradGradGradGradGradGradGradGradGradGradGradGradGradGradGrad

                          Input orientation:                          
 ---------------------------------------------------------------------
 Center     Atomic      Atomic             Coordinates (Angstroms)
 Number     Number       Type             X           Y           Z
 ---------------------------------------------------------------------
      1          6           0       -0.000001    0.722569    0.000057
      2          6           0       -1.253670    1.338780    0.000035
      3          6           0       -1.232361    2.745382    0.000003
      4          6           0       -0.000000    3.413096    0.000013
      5          6           0        1.232366    2.745381    0.000053
      6          6           0        1.253673    1.338779    0.000086
      7          1           0       -2.151144    3.320063   -0.000044
      8          1           0        0.000001    4.502415   -0.000012
      9          1           0        2.151146    3.320064    0.000051
     10          6           0        3.664136    0.580764   -0.000020
     11          6           0        1.887819   -0.902296    0.000096
     12          6           0        4.155995   -0.742817   -0.000095
     13          6           0        4.516000    1.661343   -0.000055
     14          6           0        5.525598   -1.004977   -0.000204
     15          6           0        5.902231    1.396361   -0.000167
     16          1           0        4.159142    2.684202    0.000014
     17          6           0        6.389629    0.102736   -0.000243
     18          1           0        5.907005   -2.018558   -0.000251
     19          1           0        6.589611    2.235064   -0.000196
     20          1           0        7.462497   -0.071113   -0.000322
     21          6           0       -3.664129    0.580757   -0.000040
     22          6           0       -1.887817   -0.902297    0.000059
     23          6           0       -4.155993   -0.742827   -0.000059
     24          6           0       -4.516004    1.661342   -0.000050
     25          6           0       -5.525588   -1.004982   -0.000101
     26          6           0       -5.902224    1.396350   -0.000095
     27          1           0       -4.159142    2.684196   -0.000022
     28          6           0       -6.389633    0.102727   -0.000123
     29          1           0       -5.906998   -2.018568   -0.000111
     30          1           0       -6.589613    2.235057   -0.000109
     31          1           0       -7.462488   -0.071124   -0.000150
     32          7           0       -2.269214    0.478842    0.000018
     33          7           0       -3.087090   -1.602173   -0.000041
     34          7           0        2.269222    0.478849    0.000085
     35          7           0        3.087100   -1.602179   -0.000038
     36          6           0        3.173647   -3.017128   -0.000002
     37          1           0        3.703492   -3.377229   -0.892649
     38          1           0        3.703075   -3.377226    0.892908
     39          1           0        2.165713   -3.443774   -0.000242
     40          6           0       -3.173641   -3.017137    0.000039
     41          1           0       -3.703003   -3.377218    0.892986
     42          1           0       -3.703542   -3.377245   -0.892570
     43          1           0       -2.165701   -3.443776   -0.000268
     44         27           0        0.000005   -1.196396    0.000114
 ---------------------------------------------------------------------
                    Distance matrix (angstroms):
                    1          2          3          4          5
     1  C    0.000000
     2  C    1.396926   0.000000
     3  C    2.368646   1.406763   0.000000
     4  C    2.690526   2.423732   1.401626   0.000000
     5  C    2.368648   2.856379   2.464727   1.401631   0.000000
     6  C    1.396929   2.507343   2.856378   2.423734   1.406763
     7  H    3.372594   2.175073   1.083707   2.153155   3.431967
     8  H    3.779846   3.402981   2.146132   1.089319   2.146134
     9  H    3.372597   3.939322   3.431964   2.153157   1.083706
    10  C    3.666879   4.975882   5.353620   4.631198   3.255622
    11  C    2.490793   3.858934   4.800112   4.710251   3.706098
    12  C    4.406774   5.796337   6.418871   5.877406   4.551388
    13  C    4.612544   5.778680   5.849684   4.843852   3.457947
    14  C    5.789358   7.172983   7.728855   7.074716   5.700617
    15  C    5.940567   7.156133   7.261010   6.237271   4.860813
    16  H    4.598529   5.577517   5.391850   4.222529   2.927416
    17  C    6.419623   7.742598   8.067113   7.196238   5.794906
    18  H    6.512027   7.908665   8.582871   8.024685   6.674381
    19  H    6.760963   7.894326   7.838602   6.694082   5.381496
    20  H    7.504586   8.829461   9.139650   8.235811   6.837191
    21  C    3.666872   2.526838   3.255625   4.631196   5.353621
    22  C    2.490791   2.329070   3.706101   4.710251   4.800114
    23  C    4.406774   3.571633   4.551397   5.877411   6.418878
    24  C    4.612545   3.278241   3.457955   4.843855   5.849691
    25  C    5.789348   4.872628   5.700616   7.074711   7.728852
    26  C    5.940557   4.648910   4.860813   6.237267   7.261009
    27  H    4.598525   3.201860   2.927420   4.222529   5.391854
    28  C    6.419627   5.282607   5.794918   7.196245   8.067124
    29  H    6.512023   5.738052   6.674387   8.024686   8.582873
    30  H    6.760962   5.410693   5.381503   6.694084   7.838608
    31  H    7.504576   6.366886   6.837191   8.235806   9.139648
    32  N    2.282264   1.330722   2.492441   3.709336   4.171121
    33  N    3.864525   3.465636   4.726654   5.889231   6.128534
    34  N    2.282273   3.626327   4.171122   3.709336   2.492436
    35  N    3.864536   5.243236   6.128542   5.889241   4.726660
    36  C    4.904832   6.210883   7.253925   7.170761   6.080714
    37  H    5.596528   6.900078   7.914912   7.785962   6.662562
    38  H    5.596274   6.899802   7.914679   7.785789   6.662426
    39  H    4.695608   5.879201   7.060634   7.190756   6.259135
    40  C    4.904834   4.760283   6.080723   7.170766   7.253930
    41  H    5.596231   5.388620   6.662411   7.785756   7.914633
    42  H    5.596559   5.388831   6.662580   7.785991   7.914955
    43  H    4.695603   4.868741   6.259137   7.190754   7.060632
    44  Co   1.918965   2.828218   4.129931   4.609491   4.129929
                    6          7          8          9         10
     6  C    0.000000
     7  H    3.939323   0.000000
     8  H    3.402982   2.454665   0.000000
     9  H    2.175075   4.302290   2.454665   0.000000
    10  C    2.526840   6.428160   5.367051   3.129362   0.000000
    11  C    2.329068   5.843076   5.724924   4.230563   2.314037
    12  C    3.571626   7.502466   6.692140   4.530609   1.412016
    13  C    3.278236   6.870383   5.335348   2.888580   1.375982
    14  C    4.872632   8.811262   7.801513   5.485701   2.445325
    15  C    4.648915   8.279944   6.669625   4.215599   2.382072
    16  H    3.201861   6.342242   4.539202   2.106269   2.160899
    17  C    5.282599   9.126664   7.757869   5.321273   2.767097
    18  H    5.738050   9.666159   8.798624   6.527432   3.433211
    19  H    5.410690   8.807839   6.968777   4.569157   3.360821
    20  H    6.366891  10.194223   8.752486   6.301630   3.853893
    21  C    4.975879   3.129364   5.367052   6.428159   7.328265
    22  C    3.858935   4.230563   5.724925   5.843078   5.746621
    23  C    5.796340   4.530617   6.692148   7.502472   7.931349
    24  C    5.778686   2.888584   5.335353   6.870389   8.251202
    25  C    7.172976   5.485698   7.801510   8.811258   9.325535
    26  C    7.156128   4.215598   6.669625   8.279942   9.601063
    27  H    5.577518   2.106272   4.539205   6.342244   8.101117
    28  C    7.742606   5.321282   7.757878   9.126673  10.065127
    29  H    7.908665   6.527435   8.798628   9.666161   9.917818
    30  H    7.894330   4.569162   6.968782   8.807843  10.386339
    31  H    8.829455   6.301628   8.752485  10.194219  11.145703
    32  N    3.626323   2.843673   4.619358   5.254724   5.934225
    33  N    5.243226   5.010429   6.840770   7.188014   7.095369
    34  N    1.330722   5.254725   4.619356   2.843668   1.398632
    35  N    3.465644   7.188022   6.840778   5.010437   2.257921
    36  C    4.760276   8.277282   8.161836   6.419152   3.631171
    37  H    5.388814   8.940203   8.752225   6.932563   4.057590
    38  H    5.388637   8.939963   8.752075   6.932487   4.057650
    39  H    4.868740   8.024010   8.236032   6.763854   4.294435
    40  C    6.210887   6.419159   8.161842   8.277287   7.726583
    41  H    6.899749   6.932484   8.752046   8.939910   8.410578
    42  H    6.900123   6.932566   8.752253   8.940251   8.411014
    43  H    5.879196   6.763854   8.236032   8.024008   7.084061
    44  Co   2.828214   5.002583   5.698811   5.002581   4.072364
                   11         12         13         14         15
    11  C    0.000000
    12  C    2.273776   0.000000
    13  C    3.671455   2.430965   0.000000
    14  C    3.639229   1.394469   2.851062   0.000000
    15  C    4.625941   2.761417   1.411330   2.430694   0.000000
    16  H    4.245218   3.427021   1.083323   3.934113   2.167232
    17  C    4.612633   2.388322   2.437159   1.404841   1.382397
    18  H    4.171319   2.166461   3.934027   1.082967   3.414922
    19  H    5.652423   3.845811   2.151515   3.410277   1.084396
    20  H    5.636303   3.374040   3.418077   2.150274   2.141941
    21  C    5.746614   7.931342   8.251193   9.325537   9.601065
    22  C    3.775636   6.045916   6.897908   7.414127   8.122110
    23  C    6.045915   8.311987   8.999083   9.685139  10.283189
    24  C    6.897911   8.999085   9.032004  10.389563  10.421604
    25  C    7.414118   9.685132  10.389552  11.051186  11.677392
    26  C    8.122101  10.283180  10.421594  11.677392  11.804455
    27  H    7.030551   8.993659   8.735234  10.363599  10.143458
    28  C    8.338242  10.579471  11.016448  11.966610  12.359749
    29  H    7.874340  10.143537  11.053535  11.477440  12.293072
    30  H    9.039349  11.150597  11.120422  12.540979  12.519967
    31  H    9.387176  11.637882  12.103124  13.021615  13.445044
    32  N    4.380464   6.540317   6.887484   7.934785   8.222794
    33  N    5.023898   7.293886   8.273906   8.633368   9.476239
    34  N    1.432839   2.247749   2.538958   3.578509   3.747077
    35  N    1.388564   1.371510   3.562630   2.510563   4.112931
    36  C    2.475049   2.477397   4.867238   3.095226   5.188839
    37  H    3.196710   2.818073   5.181129   3.121555   5.330866
    38  H    3.196490   2.818280   5.181256   3.121987   5.331135
    39  H    2.556626   3.355054   5.620149   4.151694   6.114611
    40  C    5.485520   7.674379   9.001042   8.928917  10.092097
    41  H    6.178979   8.336757   9.681769   9.570392  10.763145
    42  H    6.179445   8.337208   9.682191   9.570841  10.763576
    43  H    4.784364   6.874519   8.408768   8.068694   9.408424
    44  Co   1.910585   4.180668   5.344238   5.528908   6.446600
                   16         17         18         19         20
    16  H    0.000000
    17  C    3.411604   0.000000
    18  H    5.017069   2.175503   0.000000
    19  H    2.471620   2.141685   4.308045   0.000000
    20  H    4.301619   1.086862   2.492408   2.465844   0.000000
    21  C    8.101114  10.065116   9.917815  10.386334  11.145706
    22  C    7.030554   8.338238   7.874344   9.039349   9.387185
    23  C    8.993664  10.579467  10.143540  11.150598  11.637891
    24  C    8.735238  11.016446  11.053541  11.120424  12.103135
    25  C   10.363594  11.966597  11.477435  12.540971  13.021616
    26  C   10.143453  12.359736  12.293066  12.519959  13.445044
    27  H    8.318283  10.860041  11.110499  10.758132  11.943794
    28  C   10.860049  12.779262  12.478267  13.153237  13.853221
    29  H   11.110500  12.478260  11.814002  13.200705  13.510588
    30  H   10.758134  13.153232  13.200708  13.179224  14.240092
    31  H   11.943789  13.853208  13.510582  14.240084  14.924985
    32  N    6.796129   8.667007   8.549126   9.031229   9.747238
    33  N    8.419079   9.628859   9.003728  10.409752  10.660110
    34  N    2.904373   4.137537   4.412540   4.663696   5.222314
    35  N    4.418409   3.716643   2.850480   5.195384   4.635544
    36  C    5.785877   4.480635   2.910049   6.265328   5.203195
    37  H    6.143729   4.485741   2.738216   6.373695   5.084955
    38  H    6.143791   4.486137   2.738798   6.373973   5.085420
    39  H    6.444055   5.515360   4.003561   7.198616   6.279392
    40  C    9.288432  10.059311   9.135387  11.086330  11.036598
    41  H    9.967524  10.713037   9.746593  11.757270  11.678901
    42  H    9.967931  10.713478   9.747044  11.757693  11.679343
    43  H    8.806574   9.261286   8.197550  10.435742  10.201816
    44  Co   5.688362   6.520356   5.963941   7.429524   7.546857
                   21         22         23         24         25
    21  C    0.000000
    22  C    2.314030   0.000000
    23  C    1.412021   2.273774   0.000000
    24  C    1.375991   3.671458   2.430974   0.000000
    25  C    2.445322   3.639220   1.394459   2.851060   0.000000
    26  C    2.382070   4.625931   2.761412   1.411321   2.430689
    27  H    2.160900   4.245214   3.427024   1.083319   3.934109
    28  C    2.767107   4.612637   2.388328   2.437164   1.404846
    29  H    3.433213   4.171315   2.166457   3.934031   1.082973
    30  H    3.360827   5.652422   3.845816   2.151512   3.410279
    31  H    3.853891   5.636293   3.374032   3.418070   2.150273
    32  N    1.398634   1.432832   2.247757   2.538970   3.578507
    33  N    2.257911   1.388554   1.371506   3.562629   2.510559
    34  N    5.934226   4.380472   6.540327   6.887494   7.934785
    35  N    7.095372   5.023906   7.293893   8.273920   8.633368
    36  C    7.726575   5.485520   7.674377   9.001045   8.928909
    37  H    8.410960   6.179398   8.337163   9.682150   9.570795
    38  H    8.410630   6.179040   8.336810   9.681828   9.570436
    39  H    7.084061   4.784372   6.874524   8.408778   8.068694
    40  C    3.631174   2.475054   2.477398   4.867248   3.095226
    41  H    4.057656   3.196475   2.818288   5.181271   3.122006
    42  H    4.057579   3.196719   2.818057   5.181124   3.121536
    43  H    4.294433   2.556626   3.355054   5.620156   4.151693
    44  Co   4.072364   1.910593   4.180675   5.344249   5.528907
                   26         27         28         29         30
    26  C    0.000000
    27  H    2.167229   0.000000
    28  C    1.382399   3.411609   0.000000
    29  H    3.414921   5.017070   2.175506   0.000000
    30  H    1.084405   2.471622   2.141687   4.308049   0.000000
    31  H    2.141939   4.301614   1.086849   2.492406   2.465843
    32  N    3.747076   2.904378   4.137550   4.412542   4.663704
    33  N    4.112920   4.418399   3.716648   2.850484   5.195383
    34  N    8.222793   6.796132   8.667020   8.549132   9.031236
    35  N    9.476239   8.419087   9.628871   9.003731  10.409762
    36  C   10.092087   9.288427  10.059315   9.135383  11.086329
    37  H   10.763525   9.967881  10.713443   9.747005  11.757652
    38  H   10.763190   9.967578  10.713092   9.746637  11.757322
    39  H    9.408422   8.806577   9.261296   8.197553  10.435749
    40  C    5.188837   5.785880   4.480642   2.910048   6.265333
    41  H    5.331145   6.143799   4.486161   2.738822   6.373991
    42  H    5.330846   6.143719   4.485727   2.738193   6.373682
    43  H    6.114607   6.444055   5.515368   4.003563   7.198621
    44  Co   6.446598   5.688364   6.520367   5.963946   7.429531
                   31         32         33         34         35
    31  H    0.000000
    32  N    5.222313   0.000000
    33  N    4.635538   2.235967   0.000000
    34  N    9.747238   4.538436   5.746367   0.000000
    35  N   10.660109   5.746368   6.174190   2.235978   0.000000
    36  C   11.036589   6.468890   6.418639   3.611072   1.417594
    37  H   11.679298   7.165148   7.075280   4.209921   2.080264
    38  H   11.678941   7.164828   7.074922   4.209796   2.080282
    39  H   10.201815   5.920768   5.566277   3.923988   2.059230
    40  C    5.203191   3.611075   1.417608   6.468901   6.418644
    41  H    5.085438   4.209792   2.080296   7.164775   7.074868
    42  H    5.084931   4.209919   2.080264   7.165208   7.075330
    43  H    6.279390   3.923984   2.059237   5.920771   5.566273
    44  Co   7.546856   2.820598   3.113650   2.820601   3.113650
                   36         37         38         39         40
    36  C    0.000000
    37  H    1.098739   0.000000
    38  H    1.098751   1.785558   0.000000
    39  H    1.094513   1.779209   1.779221   0.000000
    40  C    6.347288   6.944172   6.943782   5.356372   0.000000
    41  H    6.943732   7.618705   7.406079   5.936676   1.098743
    42  H    6.944213   7.407034   7.618787   5.937072   1.098737
    43  H    5.356367   5.937020   5.936727   4.331414   1.094516
    44  Co   3.658835   4.389633   4.389286   3.121058   3.658843
                   41         42         43         44
    41  H    0.000000
    42  H    1.785555   0.000000
    43  H    1.779222   1.779209   0.000000
    44  Co   4.389246   4.389675   3.121058   0.000000
 Symmetry turned off by external request.
 Stoichiometry    C22H17CoN4(3)
 Framework group  C1[X(C22H17CoN4)]
 Deg. of freedom   126
 Full point group                 C1      NOp   1
 Rotational constants (GHZ):           0.4687995           0.1016916           0.0836537
 General basis read from cards:  (5D, 7F)
 ======================================================================================================
                                       Pseudopotential Parameters
 ======================================================================================================
  Center     Atomic      Valence      Angular      Power
  Number     Number     Electrons     Momentum     of R      Exponent        Coefficient   SO-Coeffient
 ======================================================================================================
    1          6
                                   No pseudopotential on this center.
    2          6
                                   No pseudopotential on this center.
    3          6
                                   No pseudopotential on this center.
    4          6
                                   No pseudopotential on this center.
    5          6
                                   No pseudopotential on this center.
    6          6
                                   No pseudopotential on this center.
    7          1
                                   No pseudopotential on this center.
    8          1
                                   No pseudopotential on this center.
    9          1
                                   No pseudopotential on this center.
   10          6
                                   No pseudopotential on this center.
   11          6
                                   No pseudopotential on this center.
   12          6
                                   No pseudopotential on this center.
   13          6
                                   No pseudopotential on this center.
   14          6
                                   No pseudopotential on this center.
   15          6
                                   No pseudopotential on this center.
   16          1
                                   No pseudopotential on this center.
   17          6
                                   No pseudopotential on this center.
   18          1
                                   No pseudopotential on this center.
   19          1
                                   No pseudopotential on this center.
   20          1
                                   No pseudopotential on this center.
   21          6
                                   No pseudopotential on this center.
   22          6
                                   No pseudopotential on this center.
   23          6
                                   No pseudopotential on this center.
   24          6
                                   No pseudopotential on this center.
   25          6
                                   No pseudopotential on this center.
   26          6
                                   No pseudopotential on this center.
   27          1
                                   No pseudopotential on this center.
   28          6
                                   No pseudopotential on this center.
   29          1
                                   No pseudopotential on this center.
   30          1
                                   No pseudopotential on this center.
   31          1
                                   No pseudopotential on this center.
   32          7
                                   No pseudopotential on this center.
   33          7
                                   No pseudopotential on this center.
   34          7
                                   No pseudopotential on this center.
   35          7
                                   No pseudopotential on this center.
   36          6
                                   No pseudopotential on this center.
   37          1
                                   No pseudopotential on this center.
   38          1
                                   No pseudopotential on this center.
   39          1
                                   No pseudopotential on this center.
   40          6
                                   No pseudopotential on this center.
   41          1
                                   No pseudopotential on this center.
   42          1
                                   No pseudopotential on this center.
   43          1
                                   No pseudopotential on this center.
   44         27           17
                                      F and up 
                                                     2        1.0000000        0.00000000    0.00000000
                                      S - F
                                                     2       23.6600000      283.96056600    0.00000000
                                                     2       10.6100000       47.15684600    0.00000000
                                      P - F
                                                     2       25.0400000      182.21223600    0.00000000
                                                     2       10.4400000       35.23335200    0.00000000
                                      D - F
                                                     2       29.5400000      -26.47533300    0.00000000
                                                     2       10.1800000       -1.82578700    0.00000000
 ======================================================================================================
   441 basis functions,   871 primitive gaussians,   473 cartesian basis functions
    98 alpha electrons       96 beta electrons
       nuclear repulsion energy      2499.0262648584 Hartrees.
 NAtoms=   44 NActive=   44 NUniq=   44 SFac= 1.00D+00 NAtFMM=   60 NAOKFM=F Big=F
 Integral buffers will be    131072 words long.
 Raffenetti 2 integral format.
 Two-electron integral symmetry is turned off.
 Nuclear repulsion after empirical dispersion term =     2498.9669784681 Hartrees.
 One-electron integrals computed using PRISM.
   1 Symmetry operations used in ECPInt.
 ECPInt:  NShTT=   11781 NPrTT=   71406 LenC2=    9554 LenP2D=   32162.
 LDataN:  DoStor=T MaxTD1= 6 Len=  172
 NBasis=   441 RedAO= T EigKep=  3.36D-04  NBF=   441
 NBsUse=   441 1.00D-06 EigRej= -1.00D+00 NBFU=   441
 Initial guess from the checkpoint file:  "b.chk"
 B after Tr=     0.000000   -0.004397   -0.000003
         Rot=    1.000000   -0.000000    0.000000   -0.000000 Ang=  -0.00 deg.
 Initial guess <Sx>= 0.0000 <Sy>= 0.0000 <Sz>= 1.0000 <S**2>= 2.1565 S= 1.0513
 Requested convergence on RMS density matrix=1.00D-08 within  64 cycles.
 Requested convergence on MAX density matrix=1.00D-06.
 Requested convergence on             energy=1.00D-06.
 No special actions if energy rises.
 Restarting incremental Fock formation.
 SCF Done:  E(UPBE1PBE) =  -1212.12279112     A.U. after   36 cycles
            NFock= 36  Conv=0.17D-08     -V/T= 2.0551
 <Sx>= 0.0000 <Sy>= 0.0000 <Sz>= 1.0000 <S**2>= 2.1758 S= 1.0575
 <L.S>=  0.00000000000    
 Annihilation of the first spin contaminant:
 S**2 before annihilation     2.1758,   after     2.0041
 QCSCF skips out because SCF is already converged.

 **********************************************************************

            Population analysis using the SCF Density.

 **********************************************************************

 Alpha  occ. eigenvalues --  -14.45244 -14.45244 -14.44707 -14.44706 -10.27860
 Alpha  occ. eigenvalues --  -10.27860 -10.27383 -10.27382 -10.27306 -10.27305
 Alpha  occ. eigenvalues --  -10.27213 -10.27212 -10.26030 -10.26030 -10.23724
 Alpha  occ. eigenvalues --  -10.23724 -10.23517 -10.23517 -10.23051 -10.23051
 Alpha  occ. eigenvalues --  -10.22912 -10.22912 -10.22313 -10.21994 -10.21990
 Alpha  occ. eigenvalues --  -10.20080  -3.93633  -2.46190  -2.43681  -2.42880
 Alpha  occ. eigenvalues --   -1.05896  -1.05793  -0.97639  -0.97213  -0.88093
 Alpha  occ. eigenvalues --   -0.87715  -0.85201  -0.80555  -0.79082  -0.77706
 Alpha  occ. eigenvalues --   -0.77629  -0.75452  -0.74933  -0.72792  -0.72484
 Alpha  occ. eigenvalues --   -0.66840  -0.65607  -0.64427  -0.64048  -0.62755
 Alpha  occ. eigenvalues --   -0.61353  -0.58853  -0.57558  -0.56678  -0.53965
 Alpha  occ. eigenvalues --   -0.52958  -0.52063  -0.49905  -0.49814  -0.49318
 Alpha  occ. eigenvalues --   -0.48351  -0.48265  -0.47136  -0.46778  -0.46012
 Alpha  occ. eigenvalues --   -0.45756  -0.45341  -0.45036  -0.44954  -0.44225
 Alpha  occ. eigenvalues --   -0.42524  -0.42014  -0.41123  -0.38937  -0.38605
 Alpha  occ. eigenvalues --   -0.38414  -0.38137  -0.37266  -0.37113  -0.37034
 Alpha  occ. eigenvalues --   -0.36506  -0.34835  -0.34480  -0.33969  -0.31970
 Alpha  occ. eigenvalues --   -0.31598  -0.30299  -0.28575  -0.27054  -0.26912
 Alpha  occ. eigenvalues --   -0.26550  -0.26138  -0.24520  -0.23872  -0.22711
 Alpha  occ. eigenvalues --   -0.20372  -0.20316  -0.10484
 Alpha virt. eigenvalues --   -0.05984  -0.02803  -0.00172   0.00185   0.00322
 Alpha virt. eigenvalues --    0.02307   0.02802   0.04041   0.04312   0.05557
 Alpha virt. eigenvalues --    0.06254   0.08047   0.08138   0.09815   0.10242
 Alpha virt. eigenvalues --    0.12577   0.13007   0.13830   0.13868   0.15108
 Alpha virt. eigenvalues --    0.15326   0.15360   0.15994   0.16132   0.16452
 Alpha virt. eigenvalues --    0.17014   0.17932   0.18014   0.18094   0.18351
 Alpha virt. eigenvalues --    0.19403   0.19885   0.19997   0.20091   0.21207
 Alpha virt. eigenvalues --    0.21933   0.22435   0.22989   0.23770   0.25975
 Alpha virt. eigenvalues --    0.26185   0.26206   0.26344   0.27687   0.27917
 Alpha virt. eigenvalues --    0.28054   0.28828   0.30856   0.31329   0.31901
 Alpha virt. eigenvalues --    0.33018   0.33609   0.34207   0.34646   0.36546
 Alpha virt. eigenvalues --    0.37587   0.37780   0.39564   0.39749   0.41186
 Alpha virt. eigenvalues --    0.41946   0.43895   0.45305   0.46143   0.47430
 Alpha virt. eigenvalues --    0.47530   0.49993   0.50834   0.52170   0.52195
 Alpha virt. eigenvalues --    0.53865   0.54084   0.56242   0.56281   0.56552
 Alpha virt. eigenvalues --    0.56972   0.57203   0.58018   0.58679   0.58800
 Alpha virt. eigenvalues --    0.58891   0.59615   0.60418   0.61527   0.61583
 Alpha virt. eigenvalues --    0.61872   0.63086   0.63261   0.63438   0.63532
 Alpha virt. eigenvalues --    0.63533   0.63703   0.64248   0.64380   0.65101
 Alpha virt. eigenvalues --    0.65240   0.66079   0.66342   0.66923   0.67394
 Alpha virt. eigenvalues --    0.67600   0.68398   0.68526   0.71081   0.71966
 Alpha virt. eigenvalues --    0.72326   0.73706   0.75598   0.75891   0.76601
 Alpha virt. eigenvalues --    0.77224   0.78165   0.79967   0.80007   0.81284
 Alpha virt. eigenvalues --    0.81742   0.82422   0.83692   0.83797   0.83872
 Alpha virt. eigenvalues --    0.84751   0.85068   0.85823   0.86703   0.87466
 Alpha virt. eigenvalues --    0.87663   0.88303   0.89758   0.90441   0.90714
 Alpha virt. eigenvalues --    0.90965   0.91716   0.92150   0.93011   0.93453
 Alpha virt. eigenvalues --    0.93870   0.93999   0.95103   0.95687   0.95978
 Alpha virt. eigenvalues --    0.97245   0.98002   0.98076   0.98221   0.98345
 Alpha virt. eigenvalues --    1.00358   1.00419   1.01807   1.01962   1.02699
 Alpha virt. eigenvalues --    1.03872   1.04216   1.06201   1.07223   1.07389
 Alpha virt. eigenvalues --    1.08742   1.08921   1.09853   1.11003   1.14204
 Alpha virt. eigenvalues --    1.15273   1.16447   1.16666   1.18640   1.18719
 Alpha virt. eigenvalues --    1.19313   1.20782   1.23955   1.24215   1.24638
 Alpha virt. eigenvalues --    1.24842   1.26410   1.27044   1.27777   1.29091
 Alpha virt. eigenvalues --    1.29845   1.30042   1.30995   1.33491   1.34000
 Alpha virt. eigenvalues --    1.36035   1.36222   1.36592   1.38684   1.39014
 Alpha virt. eigenvalues --    1.40561   1.41163   1.42806   1.42961   1.45089
 Alpha virt. eigenvalues --    1.45166   1.45599   1.46888   1.47763   1.48405
 Alpha virt. eigenvalues --    1.49426   1.49921   1.50242   1.50367   1.50417
 Alpha virt. eigenvalues --    1.51481   1.52897   1.55383   1.57959   1.57971
 Alpha virt. eigenvalues --    1.60217   1.61051   1.64717   1.65781   1.65905
 Alpha virt. eigenvalues --    1.70235   1.71476   1.73362   1.75662   1.77279
 Alpha virt. eigenvalues --    1.78353   1.80124   1.80439   1.82286   1.82396
 Alpha virt. eigenvalues --    1.85854   1.86853   1.87712   1.88003   1.88034
 Alpha virt. eigenvalues --    1.89108   1.90518   1.91091   1.92425   1.94380
 Alpha virt. eigenvalues --    1.95532   1.95591   1.96838   1.97297   1.97768
 Alpha virt. eigenvalues --    1.98027   1.99301   2.00015   2.00134   2.00243
 Alpha virt. eigenvalues --    2.00802   2.02328   2.03379   2.03474   2.06386
 Alpha virt. eigenvalues --    2.06859   2.07436   2.09770   2.10860   2.13053
 Alpha virt. eigenvalues --    2.13068   2.14430   2.15421   2.15512   2.16297
 Alpha virt. eigenvalues --    2.16812   2.17299   2.18827   2.19181   2.20368
 Alpha virt. eigenvalues --    2.20817   2.21285   2.22477   2.23452   2.24071
 Alpha virt. eigenvalues --    2.24604   2.26215   2.26754   2.27507   2.27783
 Alpha virt. eigenvalues --    2.27921   2.28324   2.28600   2.28861   2.33091
 Alpha virt. eigenvalues --    2.35044   2.37750   2.40143   2.40807   2.40983
 Alpha virt. eigenvalues --    2.42149   2.43783   2.45759   2.47095   2.47116
 Alpha virt. eigenvalues --    2.52799   2.52974   2.57107   2.58873   2.59129
 Alpha virt. eigenvalues --    2.59301   2.60452   2.61079   2.62759   2.64305
 Alpha virt. eigenvalues --    2.65018   2.66643   2.68509   2.69425   2.70185
 Alpha virt. eigenvalues --    2.70468   2.72547   2.75315   2.75614   2.75919
 Alpha virt. eigenvalues --    2.76088   2.76966   2.78629   2.80122   2.83086
 Alpha virt. eigenvalues --    2.83408   2.87393   2.87908   2.88357   2.92841
 Alpha virt. eigenvalues --    2.93356   2.97460   2.97548   2.98593   3.01742
 Alpha virt. eigenvalues --    3.06896   3.07435   3.16868   3.20451   3.20673
 Alpha virt. eigenvalues --    3.29849   3.40843   3.45189   3.47364   3.52614
 Alpha virt. eigenvalues --    3.53464   3.57932   5.55193   5.56389   5.57537
 Alpha virt. eigenvalues --    5.60187   5.61127   5.61657   5.63852  45.69876
 Alpha virt. eigenvalues --   45.88946  45.94761  63.00978
  Beta  occ. eigenvalues --  -14.45105 -14.45105 -14.44680 -14.44679 -10.27608
  Beta  occ. eigenvalues --  -10.27608 -10.27382 -10.27382 -10.27315 -10.27315
  Beta  occ. eigenvalues --  -10.27248 -10.27248 -10.25898 -10.25897 -10.23665
  Beta  occ. eigenvalues --  -10.23665 -10.23500 -10.23500 -10.23061 -10.23061
  Beta  occ. eigenvalues --  -10.22876 -10.22876 -10.22186 -10.22096 -10.22083
  Beta  occ. eigenvalues --  -10.20449  -3.86752  -2.38168  -2.37763  -2.34647
  Beta  occ. eigenvalues --   -1.05670  -1.05565  -0.97431  -0.96986  -0.88047
  Beta  occ. eigenvalues --   -0.87642  -0.85211  -0.80467  -0.79041  -0.77650
  Beta  occ. eigenvalues --   -0.77560  -0.75277  -0.74712  -0.72801  -0.72580
  Beta  occ. eigenvalues --   -0.66877  -0.65409  -0.64166  -0.63998  -0.62702
  Beta  occ. eigenvalues --   -0.61247  -0.58820  -0.57549  -0.56645  -0.53922
  Beta  occ. eigenvalues --   -0.52927  -0.52000  -0.49413  -0.49341  -0.49224
  Beta  occ. eigenvalues --   -0.48348  -0.48335  -0.47111  -0.46687  -0.45972
  Beta  occ. eigenvalues --   -0.45756  -0.45293  -0.44943  -0.44617  -0.43879
  Beta  occ. eigenvalues --   -0.42526  -0.41981  -0.41126  -0.38701  -0.38582
  Beta  occ. eigenvalues --   -0.38421  -0.37235  -0.37167  -0.36853  -0.36619
  Beta  occ. eigenvalues --   -0.36272  -0.34879  -0.33897  -0.33285  -0.31376
  Beta  occ. eigenvalues --   -0.29635  -0.29009  -0.26421  -0.26092  -0.25059
  Beta  occ. eigenvalues --   -0.24291  -0.23761  -0.21661  -0.20542  -0.20272
  Beta  occ. eigenvalues --   -0.19627
  Beta virt. eigenvalues --   -0.04862  -0.04232  -0.01044  -0.00632  -0.00018
  Beta virt. eigenvalues --    0.01239   0.01595   0.02468   0.03658   0.05599
  Beta virt. eigenvalues --    0.05927   0.06069   0.07912   0.09235   0.09356
  Beta virt. eigenvalues --    0.10267   0.10795   0.12667   0.13112   0.13954
  Beta virt. eigenvalues --    0.14121   0.15489   0.15564   0.15945   0.16093
  Beta virt. eigenvalues --    0.16597   0.16790   0.17069   0.18021   0.18226
  Beta virt. eigenvalues --    0.18578   0.19040   0.19553   0.19964   0.20333
  Beta virt. eigenvalues --    0.21695   0.22104   0.22640   0.23035   0.23113
  Beta virt. eigenvalues --    0.23834   0.26055   0.26210   0.26487   0.27518
  Beta virt. eigenvalues --    0.27718   0.28140   0.29283   0.29326   0.31140
  Beta virt. eigenvalues --    0.31620   0.32173   0.33133   0.33698   0.34584
  Beta virt. eigenvalues --    0.34700   0.36680   0.37830   0.38097   0.39775
  Beta virt. eigenvalues --    0.39825   0.41213   0.42422   0.44121   0.45757
  Beta virt. eigenvalues --    0.46477   0.47798   0.47848   0.50301   0.50942
  Beta virt. eigenvalues --    0.52257   0.52311   0.53960   0.54216   0.56286
  Beta virt. eigenvalues --    0.56325   0.56779   0.57061   0.57266   0.58197
  Beta virt. eigenvalues --    0.58812   0.58935   0.59081   0.59675   0.60488
  Beta virt. eigenvalues --    0.61732   0.61762   0.61872   0.63245   0.63283
  Beta virt. eigenvalues --    0.63497   0.63570   0.63712   0.63755   0.64272
  Beta virt. eigenvalues --    0.64429   0.64996   0.65230   0.66182   0.66522
  Beta virt. eigenvalues --    0.67382   0.67706   0.67713   0.68455   0.68726
  Beta virt. eigenvalues --    0.71071   0.72274   0.72461   0.74062   0.75854
  Beta virt. eigenvalues --    0.75944   0.76707   0.77386   0.78702   0.80113
  Beta virt. eigenvalues --    0.80551   0.81480   0.81985   0.82630   0.83805
  Beta virt. eigenvalues --    0.84061   0.84208   0.84809   0.85325   0.86007
  Beta virt. eigenvalues --    0.87173   0.87478   0.87678   0.88331   0.89808
  Beta virt. eigenvalues --    0.90735   0.90772   0.91111   0.91859   0.92289
  Beta virt. eigenvalues --    0.93058   0.93474   0.94056   0.94758   0.95744
  Beta virt. eigenvalues --    0.96243   0.96515   0.97255   0.98035   0.98294
  Beta virt. eigenvalues --    0.98360   0.98508   1.00427   1.00461   1.01909
  Beta virt. eigenvalues --    1.02023   1.02745   1.03940   1.04275   1.06284
  Beta virt. eigenvalues --    1.07282   1.08763   1.08818   1.09863   1.11315
  Beta virt. eigenvalues --    1.14285   1.15380   1.15403   1.16502   1.16692
  Beta virt. eigenvalues --    1.18687   1.18756   1.19352   1.20899   1.24095
  Beta virt. eigenvalues --    1.24420   1.24687   1.24900   1.26600   1.27247
  Beta virt. eigenvalues --    1.28197   1.29322   1.30096   1.30251   1.31130
  Beta virt. eigenvalues --    1.33881   1.34295   1.36331   1.36529   1.36891
  Beta virt. eigenvalues --    1.39182   1.39229   1.40710   1.41417   1.43078
  Beta virt. eigenvalues --    1.43302   1.45149   1.45263   1.45766   1.47031
  Beta virt. eigenvalues --    1.47874   1.48502   1.49624   1.50129   1.50297
  Beta virt. eigenvalues --    1.50493   1.50510   1.51779   1.53373   1.56586
  Beta virt. eigenvalues --    1.58036   1.58249   1.61070   1.61182   1.65309
  Beta virt. eigenvalues --    1.66052   1.66361   1.70384   1.71925   1.73552
  Beta virt. eigenvalues --    1.75810   1.77298   1.78695   1.80338   1.80574
  Beta virt. eigenvalues --    1.82396   1.82480   1.86031   1.86875   1.87754
  Beta virt. eigenvalues --    1.88014   1.88196   1.89249   1.90735   1.91136
  Beta virt. eigenvalues --    1.92493   1.94423   1.95574   1.95637   1.96937
  Beta virt. eigenvalues --    1.97401   1.97915   1.98161   1.99514   2.00067
  Beta virt. eigenvalues --    2.00184   2.00515   2.00837   2.02408   2.03468
  Beta virt. eigenvalues --    2.03578   2.06591   2.06992   2.07666   2.09888
  Beta virt. eigenvalues --    2.11245   2.13128   2.13244   2.14778   2.15447
  Beta virt. eigenvalues --    2.15609   2.16372   2.16875   2.17429   2.18932
  Beta virt. eigenvalues --    2.19470   2.20467   2.20909   2.21357   2.22654
  Beta virt. eigenvalues --    2.23751   2.24596   2.24757   2.26444   2.26966
  Beta virt. eigenvalues --    2.27635   2.27938   2.28036   2.28533   2.28708
  Beta virt. eigenvalues --    2.29016   2.33172   2.35545   2.37937   2.40218
  Beta virt. eigenvalues --    2.41022   2.41143   2.44237   2.44960   2.47163
  Beta virt. eigenvalues --    2.47639   2.48611   2.52922   2.53056   2.57318
  Beta virt. eigenvalues --    2.59182   2.59204   2.59395   2.60835   2.61140
  Beta virt. eigenvalues --    2.62878   2.64531   2.65297   2.66751   2.68714
  Beta virt. eigenvalues --    2.69550   2.70314   2.70725   2.72779   2.75461
  Beta virt. eigenvalues --    2.75789   2.76029   2.76243   2.77327   2.78963
  Beta virt. eigenvalues --    2.80131   2.83145   2.85716   2.87747   2.88069
  Beta virt. eigenvalues --    2.88370   2.93195   2.93965   2.97553   2.97730
  Beta virt. eigenvalues --    2.99010   3.02418   3.07077   3.07721   3.16911
  Beta virt. eigenvalues --    3.20704   3.21034   3.29754   3.41140   3.45927
  Beta virt. eigenvalues --    3.47392   3.52915   3.53408   3.60259   5.61285
  Beta virt. eigenvalues --    5.63069   5.63186   5.63960   5.64758   5.67406
  Beta virt. eigenvalues --    5.69157  45.80144  45.97450  46.00807  63.07063
          Condensed to atoms (all electrons):
               1          2          3          4          5          6
     1  C    5.238879   0.488225  -0.064211  -0.050524  -0.064210   0.488223
     2  C    0.488225   4.597050   0.532769  -0.006851  -0.039512  -0.018372
     3  C   -0.064211   0.532769   5.039650   0.524101  -0.037569  -0.039512
     4  C   -0.050524  -0.006851   0.524101   4.899646   0.524099  -0.006852
     5  C   -0.064210  -0.039512  -0.037569   0.524099   5.039653   0.532769
     6  C    0.488223  -0.018372  -0.039512  -0.006852   0.532769   4.597047
     7  H    0.005521  -0.038806   0.348076  -0.039967   0.004306   0.000607
     8  H    0.001094   0.002326  -0.034939   0.366999  -0.034939   0.002326
     9  H    0.005521   0.000607   0.004306  -0.039967   0.348076  -0.038806
    10  C    0.007526  -0.000019   0.000002   0.000139  -0.006114  -0.049192
    11  C    0.016045   0.003090  -0.000080   0.000059   0.002738  -0.074792
    12  C   -0.000854   0.000001  -0.000000   0.000000   0.000096   0.008170
    13  C    0.000188   0.000002  -0.000002   0.000059   0.002120  -0.005020
    14  C   -0.000000  -0.000000   0.000000  -0.000000   0.000002  -0.000020
    15  C    0.000002  -0.000000   0.000000  -0.000001   0.000080   0.000076
    16  H   -0.000031   0.000001   0.000000   0.000109   0.000045   0.000766
    17  C    0.000000   0.000000  -0.000000   0.000000  -0.000001  -0.000004
    18  H   -0.000000   0.000000   0.000000   0.000000  -0.000000   0.000003
    19  H   -0.000000   0.000000  -0.000000   0.000000   0.000002  -0.000003
    20  H   -0.000000  -0.000000   0.000000  -0.000000  -0.000000  -0.000000
    21  C    0.007526  -0.049192  -0.006114   0.000139   0.000002  -0.000019
    22  C    0.016043  -0.074791   0.002738   0.000059  -0.000080   0.003090
    23  C   -0.000854   0.008170   0.000096   0.000000  -0.000000   0.000001
    24  C    0.000188  -0.005020   0.002120   0.000059  -0.000002   0.000002
    25  C   -0.000000  -0.000020   0.000002  -0.000000   0.000000  -0.000000
    26  C    0.000002   0.000076   0.000080  -0.000001   0.000000  -0.000000
    27  H   -0.000031   0.000766   0.000045   0.000109   0.000000   0.000001
    28  C    0.000000  -0.000004  -0.000001   0.000000  -0.000000   0.000000
    29  H   -0.000000   0.000003  -0.000000   0.000000   0.000000   0.000000
    30  H   -0.000000  -0.000003   0.000002   0.000000  -0.000000   0.000000
    31  H   -0.000000  -0.000000  -0.000000  -0.000000   0.000000  -0.000000
    32  N   -0.034877   0.275161  -0.066902   0.004468   0.000431   0.006635
    33  N    0.001354   0.006381  -0.000164   0.000001   0.000000  -0.000044
    34  N   -0.034878   0.006635   0.000431   0.004468  -0.066902   0.275164
    35  N    0.001354  -0.000044   0.000000   0.000001  -0.000164   0.006381
    36  C   -0.000014   0.000001  -0.000000  -0.000000   0.000002  -0.000076
    37  H   -0.000000  -0.000000   0.000000   0.000000  -0.000000   0.000005
    38  H   -0.000000  -0.000000   0.000000   0.000000  -0.000000   0.000005
    39  H   -0.000020   0.000001   0.000000  -0.000000   0.000000  -0.000014
    40  C   -0.000014  -0.000076   0.000002  -0.000000  -0.000000   0.000001
    41  H   -0.000000   0.000005  -0.000000   0.000000   0.000000  -0.000000
    42  H   -0.000000   0.000005  -0.000000   0.000000   0.000000  -0.000000
    43  H   -0.000020  -0.000014   0.000000  -0.000000   0.000000   0.000001
    44  Co   0.268916  -0.068733   0.003519   0.003219   0.003519  -0.068733
               7          8          9         10         11         12
     1  C    0.005521   0.001094   0.005521   0.007526   0.016045  -0.000854
     2  C   -0.038806   0.002326   0.000607  -0.000019   0.003090   0.000001
     3  C    0.348076  -0.034939   0.004306   0.000002  -0.000080  -0.000000
     4  C   -0.039967   0.366999  -0.039967   0.000139   0.000059   0.000000
     5  C    0.004306  -0.034939   0.348076  -0.006114   0.002738   0.000096
     6  C    0.000607   0.002326  -0.038806  -0.049192  -0.074792   0.008170
     7  H    0.557343  -0.004290  -0.000121  -0.000000  -0.000000   0.000000
     8  H   -0.004290   0.539679  -0.004290  -0.000003   0.000001  -0.000000
     9  H   -0.000121  -0.004290   0.557342   0.000310  -0.000174  -0.000037
    10  C   -0.000000  -0.000003   0.000310   4.641987  -0.068316   0.511860
    11  C   -0.000000   0.000001  -0.000174  -0.068316   4.839449  -0.057106
    12  C    0.000000  -0.000000  -0.000037   0.511860  -0.057106   4.652561
    13  C   -0.000000   0.000003   0.000037   0.542770   0.004923  -0.057640
    14  C   -0.000000   0.000000   0.000001  -0.047479   0.005647   0.534182
    15  C   -0.000000   0.000000   0.000135  -0.006429  -0.000077  -0.037939
    16  H   -0.000000  -0.000010   0.006243  -0.033730  -0.000145   0.003636
    17  C    0.000000  -0.000000   0.000001  -0.039359  -0.000084  -0.008577
    18  H    0.000000  -0.000000  -0.000000   0.003861  -0.000206  -0.038031
    19  H    0.000000   0.000000  -0.000009   0.001991   0.000003   0.000952
    20  H   -0.000000  -0.000000   0.000000   0.000904   0.000003   0.002310
    21  C    0.000310  -0.000003  -0.000000  -0.000000  -0.000008   0.000000
    22  C   -0.000174   0.000001  -0.000000  -0.000008  -0.016730  -0.000003
    23  C   -0.000037  -0.000000   0.000000   0.000000  -0.000003  -0.000000
    24  C    0.000037   0.000003  -0.000000   0.000000   0.000000  -0.000000
    25  C    0.000001   0.000000  -0.000000  -0.000000   0.000000   0.000000
    26  C    0.000135   0.000000  -0.000000  -0.000000  -0.000000  -0.000000
    27  H    0.006243  -0.000010  -0.000000   0.000000   0.000000  -0.000000
    28  C    0.000001  -0.000000   0.000000   0.000000  -0.000000  -0.000000
    29  H   -0.000000  -0.000000   0.000000   0.000000   0.000000  -0.000000
    30  H   -0.000009   0.000000   0.000000   0.000000   0.000000   0.000000
    31  H    0.000000  -0.000000  -0.000000   0.000000   0.000000   0.000000
    32  N   -0.004395  -0.000100   0.000006   0.000000   0.000338   0.000000
    33  N    0.000002  -0.000000  -0.000000  -0.000000   0.000028   0.000000
    34  N    0.000006  -0.000100  -0.004395   0.258887   0.345875  -0.038239
    35  N   -0.000000  -0.000000   0.000002  -0.043802   0.311421   0.273376
    36  C   -0.000000   0.000000  -0.000000   0.005919  -0.042841  -0.048725
    37  H    0.000000  -0.000000   0.000000  -0.000139   0.000697  -0.001294
    38  H    0.000000  -0.000000   0.000000  -0.000139   0.000693  -0.001291
    39  H    0.000000   0.000000   0.000000   0.000017  -0.000493   0.002641
    40  C   -0.000000   0.000000  -0.000000   0.000000   0.000019   0.000000
    41  H    0.000000  -0.000000   0.000000  -0.000000  -0.000000  -0.000000
    42  H    0.000000  -0.000000   0.000000  -0.000000  -0.000000  -0.000000
    43  H    0.000000   0.000000   0.000000  -0.000000  -0.000002  -0.000000
    44  Co  -0.000610   0.000191  -0.000610   0.008014   0.373123   0.004516
              13         14         15         16         17         18
     1  C    0.000188  -0.000000   0.000002  -0.000031   0.000000  -0.000000
     2  C    0.000002  -0.000000  -0.000000   0.000001   0.000000   0.000000
     3  C   -0.000002   0.000000   0.000000   0.000000  -0.000000   0.000000
     4  C    0.000059  -0.000000  -0.000001   0.000109   0.000000   0.000000
     5  C    0.002120   0.000002   0.000080   0.000045  -0.000001  -0.000000
     6  C   -0.005020  -0.000020   0.000076   0.000766  -0.000004   0.000003
     7  H   -0.000000  -0.000000  -0.000000  -0.000000   0.000000   0.000000
     8  H    0.000003   0.000000   0.000000  -0.000010  -0.000000  -0.000000
     9  H    0.000037   0.000001   0.000135   0.006243   0.000001  -0.000000
    10  C    0.542770  -0.047479  -0.006429  -0.033730  -0.039359   0.003861
    11  C    0.004923   0.005647  -0.000077  -0.000145  -0.000084  -0.000206
    12  C   -0.057640   0.534182  -0.037939   0.003636  -0.008577  -0.038031
    13  C    5.032188  -0.044302   0.504444   0.355942  -0.036202   0.000289
    14  C   -0.044302   5.037971  -0.038470   0.000447   0.514145   0.362927
    15  C    0.504444  -0.038470   4.900173  -0.035663   0.562378   0.003921
    16  H    0.355942   0.000447  -0.035663   0.515279   0.003699   0.000013
    17  C   -0.036202   0.514145   0.562378   0.003699   4.883781  -0.035563
    18  H    0.000289   0.362927   0.003921   0.000013  -0.035563   0.535497
    19  H   -0.036104   0.004040   0.368742  -0.004031  -0.036230  -0.000150
    20  H    0.004011  -0.037369  -0.036223  -0.000149   0.368138  -0.004184
    21  C    0.000000  -0.000000  -0.000000   0.000000   0.000000   0.000000
    22  C    0.000000   0.000000  -0.000000   0.000000  -0.000000   0.000000
    23  C   -0.000000   0.000000  -0.000000  -0.000000  -0.000000  -0.000000
    24  C    0.000000   0.000000  -0.000000   0.000000   0.000000   0.000000
    25  C    0.000000  -0.000000   0.000000  -0.000000  -0.000000   0.000000
    26  C   -0.000000   0.000000  -0.000000  -0.000000   0.000000   0.000000
    27  H    0.000000  -0.000000  -0.000000   0.000000   0.000000  -0.000000
    28  C    0.000000  -0.000000   0.000000   0.000000   0.000000   0.000000
    29  H    0.000000   0.000000   0.000000  -0.000000   0.000000  -0.000000
    30  H   -0.000000  -0.000000   0.000000  -0.000000   0.000000   0.000000
    31  H   -0.000000   0.000000   0.000000  -0.000000   0.000000   0.000000
    32  N   -0.000000   0.000000   0.000000   0.000000   0.000000  -0.000000
    33  N    0.000000  -0.000000   0.000000   0.000000   0.000000  -0.000000
    34  N   -0.079009   0.008755   0.005123  -0.005110  -0.000179  -0.000086
    35  N    0.009599  -0.084875  -0.000153  -0.000093   0.005438  -0.007193
    36  C   -0.000120  -0.003149   0.000010   0.000003  -0.000115   0.004142
    37  H   -0.000009   0.002939  -0.000002  -0.000000  -0.000008   0.000537
    38  H   -0.000009   0.002937  -0.000002  -0.000000  -0.000008   0.000535
    39  H    0.000006   0.000024  -0.000000  -0.000000   0.000001  -0.000031
    40  C    0.000000   0.000000  -0.000000   0.000000   0.000000  -0.000000
    41  H    0.000000   0.000000  -0.000000   0.000000  -0.000000  -0.000000
    42  H    0.000000   0.000000  -0.000000   0.000000  -0.000000  -0.000000
    43  H    0.000000   0.000000  -0.000000   0.000000  -0.000000   0.000000
    44  Co  -0.000564  -0.000496  -0.000011   0.000048   0.000015   0.000014
              19         20         21         22         23         24
     1  C   -0.000000  -0.000000   0.007526   0.016043  -0.000854   0.000188
     2  C    0.000000  -0.000000  -0.049192  -0.074791   0.008170  -0.005020
     3  C   -0.000000   0.000000  -0.006114   0.002738   0.000096   0.002120
     4  C    0.000000  -0.000000   0.000139   0.000059   0.000000   0.000059
     5  C    0.000002  -0.000000   0.000002  -0.000080  -0.000000  -0.000002
     6  C   -0.000003  -0.000000  -0.000019   0.003090   0.000001   0.000002
     7  H    0.000000  -0.000000   0.000310  -0.000174  -0.000037   0.000037
     8  H    0.000000  -0.000000  -0.000003   0.000001  -0.000000   0.000003
     9  H   -0.000009   0.000000  -0.000000  -0.000000   0.000000  -0.000000
    10  C    0.001991   0.000904  -0.000000  -0.000008   0.000000   0.000000
    11  C    0.000003   0.000003  -0.000008  -0.016730  -0.000003   0.000000
    12  C    0.000952   0.002310   0.000000  -0.000003  -0.000000  -0.000000
    13  C   -0.036104   0.004011   0.000000   0.000000  -0.000000   0.000000
    14  C    0.004040  -0.037369  -0.000000   0.000000   0.000000   0.000000
    15  C    0.368742  -0.036223  -0.000000  -0.000000  -0.000000  -0.000000
    16  H   -0.004031  -0.000149   0.000000   0.000000  -0.000000   0.000000
    17  C   -0.036230   0.368138   0.000000  -0.000000  -0.000000   0.000000
    18  H   -0.000150  -0.004184   0.000000   0.000000  -0.000000   0.000000
    19  H    0.535626  -0.004723   0.000000   0.000000   0.000000  -0.000000
    20  H   -0.004723   0.538570   0.000000   0.000000   0.000000  -0.000000
    21  C    0.000000   0.000000   4.642005  -0.068317   0.511859   0.542768
    22  C    0.000000   0.000000  -0.068317   4.839437  -0.057106   0.004923
    23  C    0.000000   0.000000   0.511859  -0.057106   4.652551  -0.057639
    24  C   -0.000000  -0.000000   0.542768   0.004923  -0.057639   5.032175
    25  C   -0.000000   0.000000  -0.047479   0.005647   0.534183  -0.044302
    26  C    0.000000   0.000000  -0.006428  -0.000077  -0.037939   0.504448
    27  H   -0.000000  -0.000000  -0.033731  -0.000145   0.003636   0.355944
    28  C    0.000000   0.000000  -0.039359  -0.000084  -0.008578  -0.036202
    29  H    0.000000   0.000000   0.003861  -0.000206  -0.038031   0.000289
    30  H    0.000000   0.000000   0.001991   0.000003   0.000952  -0.036104
    31  H    0.000000   0.000000   0.000904   0.000003   0.002310   0.004011
    32  N   -0.000000   0.000000   0.258889   0.345878  -0.038240  -0.079006
    33  N   -0.000000  -0.000000  -0.043802   0.311425   0.273375   0.009599
    34  N   -0.000093   0.000004   0.000000   0.000338   0.000000  -0.000000
    35  N    0.000004  -0.000099  -0.000000   0.000028   0.000000   0.000000
    36  C   -0.000000  -0.000002   0.000000   0.000019   0.000000   0.000000
    37  H   -0.000000   0.000000  -0.000000  -0.000000  -0.000000   0.000000
    38  H   -0.000000   0.000000  -0.000000  -0.000000  -0.000000   0.000000
    39  H   -0.000000  -0.000000  -0.000000  -0.000002  -0.000000   0.000000
    40  C    0.000000  -0.000000   0.005919  -0.042841  -0.048725  -0.000120
    41  H   -0.000000   0.000000  -0.000139   0.000693  -0.001290  -0.000009
    42  H   -0.000000   0.000000  -0.000139   0.000698  -0.001294  -0.000009
    43  H    0.000000   0.000000   0.000017  -0.000493   0.002641   0.000006
    44  Co   0.000016  -0.000002   0.008015   0.373122   0.004516  -0.000564
              25         26         27         28         29         30
     1  C   -0.000000   0.000002  -0.000031   0.000000  -0.000000  -0.000000
     2  C   -0.000020   0.000076   0.000766  -0.000004   0.000003  -0.000003
     3  C    0.000002   0.000080   0.000045  -0.000001  -0.000000   0.000002
     4  C   -0.000000  -0.000001   0.000109   0.000000   0.000000   0.000000
     5  C    0.000000   0.000000   0.000000  -0.000000   0.000000  -0.000000
     6  C   -0.000000  -0.000000   0.000001   0.000000   0.000000   0.000000
     7  H    0.000001   0.000135   0.006243   0.000001  -0.000000  -0.000009
     8  H    0.000000   0.000000  -0.000010  -0.000000  -0.000000   0.000000
     9  H   -0.000000  -0.000000  -0.000000   0.000000   0.000000   0.000000
    10  C   -0.000000  -0.000000   0.000000   0.000000   0.000000   0.000000
    11  C    0.000000  -0.000000   0.000000  -0.000000   0.000000   0.000000
    12  C    0.000000  -0.000000  -0.000000  -0.000000  -0.000000   0.000000
    13  C    0.000000  -0.000000   0.000000   0.000000   0.000000  -0.000000
    14  C   -0.000000   0.000000  -0.000000  -0.000000   0.000000  -0.000000
    15  C    0.000000  -0.000000  -0.000000   0.000000   0.000000   0.000000
    16  H   -0.000000  -0.000000   0.000000   0.000000  -0.000000  -0.000000
    17  C   -0.000000   0.000000   0.000000   0.000000   0.000000   0.000000
    18  H    0.000000   0.000000  -0.000000   0.000000  -0.000000   0.000000
    19  H   -0.000000   0.000000  -0.000000   0.000000   0.000000   0.000000
    20  H    0.000000   0.000000  -0.000000   0.000000   0.000000   0.000000
    21  C   -0.047479  -0.006428  -0.033731  -0.039359   0.003861   0.001991
    22  C    0.005647  -0.000077  -0.000145  -0.000084  -0.000206   0.000003
    23  C    0.534183  -0.037939   0.003636  -0.008578  -0.038031   0.000952
    24  C   -0.044302   0.504448   0.355944  -0.036202   0.000289  -0.036104
    25  C    5.037979  -0.038469   0.000447   0.514143   0.362925   0.004040
    26  C   -0.038469   4.900174  -0.035663   0.562376   0.003921   0.368741
    27  H    0.000447  -0.035663   0.515278   0.003699   0.000013  -0.004031
    28  C    0.514143   0.562376   0.003699   4.883779  -0.035563  -0.036230
    29  H    0.362925   0.003921   0.000013  -0.035563   0.535499  -0.000150
    30  H    0.004040   0.368741  -0.004031  -0.036230  -0.000150   0.535628
    31  H   -0.037369  -0.036223  -0.000149   0.368140  -0.004184  -0.004723
    32  N    0.008755   0.005123  -0.005110  -0.000179  -0.000086  -0.000093
    33  N   -0.084876  -0.000153  -0.000093   0.005438  -0.007193   0.000004
    34  N    0.000000   0.000000   0.000000   0.000000  -0.000000  -0.000000
    35  N   -0.000000   0.000000   0.000000   0.000000  -0.000000  -0.000000
    36  C    0.000000  -0.000000   0.000000   0.000000  -0.000000   0.000000
    37  H    0.000000  -0.000000   0.000000  -0.000000  -0.000000  -0.000000
    38  H    0.000000  -0.000000   0.000000  -0.000000  -0.000000  -0.000000
    39  H    0.000000  -0.000000   0.000000  -0.000000   0.000000   0.000000
    40  C   -0.003149   0.000010   0.000003  -0.000115   0.004142  -0.000000
    41  H    0.002937  -0.000002  -0.000000  -0.000008   0.000535  -0.000000
    42  H    0.002939  -0.000002  -0.000000  -0.000008   0.000537  -0.000000
    43  H    0.000024  -0.000000  -0.000000   0.000001  -0.000031  -0.000000
    44  Co  -0.000496  -0.000011   0.000048   0.000015   0.000014   0.000016
              31         32         33         34         35         36
     1  C   -0.000000  -0.034877   0.001354  -0.034878   0.001354  -0.000014
     2  C   -0.000000   0.275161   0.006381   0.006635  -0.000044   0.000001
     3  C   -0.000000  -0.066902  -0.000164   0.000431   0.000000  -0.000000
     4  C   -0.000000   0.004468   0.000001   0.004468   0.000001  -0.000000
     5  C    0.000000   0.000431   0.000000  -0.066902  -0.000164   0.000002
     6  C   -0.000000   0.006635  -0.000044   0.275164   0.006381  -0.000076
     7  H    0.000000  -0.004395   0.000002   0.000006  -0.000000  -0.000000
     8  H   -0.000000  -0.000100  -0.000000  -0.000100  -0.000000   0.000000
     9  H   -0.000000   0.000006  -0.000000  -0.004395   0.000002  -0.000000
    10  C    0.000000   0.000000  -0.000000   0.258887  -0.043802   0.005919
    11  C    0.000000   0.000338   0.000028   0.345875   0.311421  -0.042841
    12  C    0.000000   0.000000   0.000000  -0.038239   0.273376  -0.048725
    13  C   -0.000000  -0.000000   0.000000  -0.079009   0.009599  -0.000120
    14  C    0.000000   0.000000  -0.000000   0.008755  -0.084875  -0.003149
    15  C    0.000000   0.000000   0.000000   0.005123  -0.000153   0.000010
    16  H   -0.000000   0.000000   0.000000  -0.005110  -0.000093   0.000003
    17  C    0.000000   0.000000   0.000000  -0.000179   0.005438  -0.000115
    18  H    0.000000  -0.000000  -0.000000  -0.000086  -0.007193   0.004142
    19  H    0.000000  -0.000000  -0.000000  -0.000093   0.000004  -0.000000
    20  H    0.000000   0.000000  -0.000000   0.000004  -0.000099  -0.000002
    21  C    0.000904   0.258889  -0.043802   0.000000  -0.000000   0.000000
    22  C    0.000003   0.345878   0.311425   0.000338   0.000028   0.000019
    23  C    0.002310  -0.038240   0.273375   0.000000   0.000000   0.000000
    24  C    0.004011  -0.079006   0.009599  -0.000000   0.000000   0.000000
    25  C   -0.037369   0.008755  -0.084876   0.000000  -0.000000   0.000000
    26  C   -0.036223   0.005123  -0.000153   0.000000   0.000000  -0.000000
    27  H   -0.000149  -0.005110  -0.000093   0.000000   0.000000   0.000000
    28  C    0.368140  -0.000179   0.005438   0.000000   0.000000   0.000000
    29  H   -0.004184  -0.000086  -0.007193  -0.000000  -0.000000  -0.000000
    30  H   -0.004723  -0.000093   0.000004  -0.000000  -0.000000   0.000000
    31  H    0.538565   0.000004  -0.000099   0.000000  -0.000000  -0.000000
    32  N    0.000004   7.174412  -0.057698  -0.000139   0.000001  -0.000000
    33  N   -0.000099  -0.057698   7.049658   0.000001  -0.000000  -0.000000
    34  N    0.000000  -0.000139   0.000001   7.174420  -0.057698   0.004555
    35  N   -0.000000   0.000001  -0.000000  -0.057698   7.049652   0.300414
    36  C   -0.000000  -0.000000  -0.000000   0.004555   0.300414   5.051707
    37  H    0.000000   0.000000  -0.000000  -0.000068  -0.043761   0.377882
    38  H    0.000000   0.000000  -0.000000  -0.000068  -0.043768   0.377890
    39  H    0.000000  -0.000000   0.000001   0.000148  -0.032396   0.377171
    40  C   -0.000002   0.004555   0.300412  -0.000000  -0.000000   0.000000
    41  H    0.000000  -0.000068  -0.043766   0.000000  -0.000000  -0.000000
    42  H    0.000000  -0.000068  -0.043761   0.000000  -0.000000  -0.000000
    43  H   -0.000000   0.000148  -0.032396  -0.000000   0.000001  -0.000001
    44  Co  -0.000002  -0.080763  -0.053974  -0.080763  -0.053974  -0.002970
              37         38         39         40         41         42
     1  C   -0.000000  -0.000000  -0.000020  -0.000014  -0.000000  -0.000000
     2  C   -0.000000  -0.000000   0.000001  -0.000076   0.000005   0.000005
     3  C    0.000000   0.000000   0.000000   0.000002  -0.000000  -0.000000
     4  C    0.000000   0.000000  -0.000000  -0.000000   0.000000   0.000000
     5  C   -0.000000  -0.000000   0.000000  -0.000000   0.000000   0.000000
     6  C    0.000005   0.000005  -0.000014   0.000001  -0.000000  -0.000000
     7  H    0.000000   0.000000   0.000000  -0.000000   0.000000   0.000000
     8  H   -0.000000  -0.000000   0.000000   0.000000  -0.000000  -0.000000
     9  H    0.000000   0.000000   0.000000  -0.000000   0.000000   0.000000
    10  C   -0.000139  -0.000139   0.000017   0.000000  -0.000000  -0.000000
    11  C    0.000697   0.000693  -0.000493   0.000019  -0.000000  -0.000000
    12  C   -0.001294  -0.001291   0.002641   0.000000  -0.000000  -0.000000
    13  C   -0.000009  -0.000009   0.000006   0.000000   0.000000   0.000000
    14  C    0.002939   0.002937   0.000024   0.000000   0.000000   0.000000
    15  C   -0.000002  -0.000002  -0.000000  -0.000000  -0.000000  -0.000000
    16  H   -0.000000  -0.000000  -0.000000   0.000000   0.000000   0.000000
    17  C   -0.000008  -0.000008   0.000001   0.000000  -0.000000  -0.000000
    18  H    0.000537   0.000535  -0.000031  -0.000000  -0.000000  -0.000000
    19  H   -0.000000  -0.000000  -0.000000   0.000000  -0.000000  -0.000000
    20  H    0.000000   0.000000  -0.000000  -0.000000   0.000000   0.000000
    21  C   -0.000000  -0.000000  -0.000000   0.005919  -0.000139  -0.000139
    22  C   -0.000000  -0.000000  -0.000002  -0.042841   0.000693   0.000698
    23  C   -0.000000  -0.000000  -0.000000  -0.048725  -0.001290  -0.001294
    24  C    0.000000   0.000000   0.000000  -0.000120  -0.000009  -0.000009
    25  C    0.000000   0.000000   0.000000  -0.003149   0.002937   0.002939
    26  C   -0.000000  -0.000000  -0.000000   0.000010  -0.000002  -0.000002
    27  H    0.000000   0.000000   0.000000   0.000003  -0.000000  -0.000000
    28  C   -0.000000  -0.000000  -0.000000  -0.000115  -0.000008  -0.000008
    29  H   -0.000000  -0.000000   0.000000   0.004142   0.000535   0.000537
    30  H   -0.000000  -0.000000   0.000000  -0.000000  -0.000000  -0.000000
    31  H    0.000000   0.000000   0.000000  -0.000002   0.000000   0.000000
    32  N    0.000000   0.000000  -0.000000   0.004555  -0.000068  -0.000068
    33  N   -0.000000  -0.000000   0.000001   0.300412  -0.043766  -0.043761
    34  N   -0.000068  -0.000068   0.000148  -0.000000   0.000000   0.000000
    35  N   -0.043761  -0.043768  -0.032396  -0.000000  -0.000000  -0.000000
    36  C    0.377882   0.377890   0.377171   0.000000  -0.000000  -0.000000
    37  H    0.527128  -0.041069  -0.025189  -0.000000  -0.000000   0.000000
    38  H   -0.041069   0.527138  -0.025200  -0.000000   0.000000  -0.000000
    39  H   -0.025189  -0.025200   0.480579  -0.000001   0.000000   0.000000
    40  C   -0.000000  -0.000000  -0.000001   5.051707   0.377890   0.377882
    41  H   -0.000000   0.000000   0.000000   0.377890   0.527131  -0.041068
    42  H    0.000000  -0.000000   0.000000   0.377882  -0.041068   0.527124
    43  H    0.000000   0.000000  -0.000024   0.377171  -0.025201  -0.025188
    44  Co   0.000988   0.000989   0.007417  -0.002970   0.000990   0.000987
              43         44
     1  C   -0.000020   0.268916
     2  C   -0.000014  -0.068733
     3  C    0.000000   0.003519
     4  C   -0.000000   0.003219
     5  C    0.000000   0.003519
     6  C    0.000001  -0.068733
     7  H    0.000000  -0.000610
     8  H    0.000000   0.000191
     9  H    0.000000  -0.000610
    10  C   -0.000000   0.008014
    11  C   -0.000002   0.373123
    12  C   -0.000000   0.004516
    13  C    0.000000  -0.000564
    14  C    0.000000  -0.000496
    15  C   -0.000000  -0.000011
    16  H    0.000000   0.000048
    17  C   -0.000000   0.000015
    18  H    0.000000   0.000014
    19  H    0.000000   0.000016
    20  H    0.000000  -0.000002
    21  C    0.000017   0.008015
    22  C   -0.000493   0.373122
    23  C    0.002641   0.004516
    24  C    0.000006  -0.000564
    25  C    0.000024  -0.000496
    26  C   -0.000000  -0.000011
    27  H   -0.000000   0.000048
    28  C    0.000001   0.000015
    29  H   -0.000031   0.000014
    30  H   -0.000000   0.000016
    31  H   -0.000000  -0.000002
    32  N    0.000148  -0.080763
    33  N   -0.032396  -0.053974
    34  N   -0.000000  -0.080763
    35  N    0.000001  -0.053974
    36  C   -0.000001  -0.002970
    37  H    0.000000   0.000988
    38  H    0.000000   0.000989
    39  H   -0.000024   0.007417
    40  C    0.377171  -0.002970
    41  H   -0.025201   0.000990
    42  H   -0.025188   0.000987
    43  H    0.480579   0.007417
    44  Co   0.007417  16.289992
          Atomic-Atomic Spin Densities.
               1          2          3          4          5          6
     1  C   -0.246376  -0.007613   0.003654   0.004222   0.003654  -0.007613
     2  C   -0.007613   0.098709   0.004350  -0.003037   0.000771   0.002990
     3  C    0.003654   0.004350  -0.080776  -0.004689   0.000804   0.000771
     4  C    0.004222  -0.003037  -0.004689   0.111323  -0.004688  -0.003037
     5  C    0.003654   0.000771   0.000804  -0.004688  -0.080778   0.004350
     6  C   -0.007613   0.002990   0.000771  -0.003037   0.004350   0.098710
     7  H   -0.000445   0.000073   0.002642   0.000840  -0.000024  -0.000063
     8  H   -0.000050   0.000021   0.000071  -0.000112   0.000071   0.000021
     9  H   -0.000445  -0.000063  -0.000024   0.000840   0.002642   0.000073
    10  C   -0.000242  -0.000019   0.000000   0.000017   0.000327  -0.000264
    11  C    0.004720  -0.000966   0.000002   0.000026  -0.000185  -0.006518
    12  C    0.000052   0.000000   0.000000  -0.000000  -0.000008   0.000023
    13  C    0.000017   0.000000  -0.000000   0.000004  -0.000228  -0.000325
    14  C    0.000001   0.000000  -0.000000   0.000000  -0.000001  -0.000018
    15  C   -0.000000   0.000000   0.000000  -0.000000   0.000002   0.000009
    16  H   -0.000001  -0.000000  -0.000000   0.000002   0.000046   0.000046
    17  C   -0.000000  -0.000000   0.000000  -0.000000   0.000000   0.000001
    18  H    0.000000  -0.000000  -0.000000   0.000000   0.000000   0.000000
    19  H    0.000000   0.000000  -0.000000  -0.000000   0.000000   0.000000
    20  H    0.000000   0.000000  -0.000000  -0.000000  -0.000000  -0.000000
    21  C   -0.000242  -0.000264   0.000327   0.000017   0.000000  -0.000019
    22  C    0.004720  -0.006517  -0.000185   0.000026   0.000002  -0.000966
    23  C    0.000052   0.000023  -0.000008  -0.000000   0.000000   0.000000
    24  C    0.000017  -0.000325  -0.000228   0.000004  -0.000000   0.000000
    25  C    0.000001  -0.000018  -0.000001   0.000000  -0.000000   0.000000
    26  C   -0.000000   0.000009   0.000002  -0.000000   0.000000   0.000000
    27  H   -0.000001   0.000046   0.000046   0.000002  -0.000000  -0.000000
    28  C   -0.000000   0.000001   0.000000  -0.000000   0.000000  -0.000000
    29  H    0.000000   0.000000   0.000000   0.000000  -0.000000  -0.000000
    30  H    0.000000   0.000000   0.000000  -0.000000  -0.000000   0.000000
    31  H    0.000000  -0.000000  -0.000000  -0.000000  -0.000000   0.000000
    32  N    0.000526   0.011516   0.003026   0.000052   0.000020  -0.000072
    33  N   -0.000584   0.000415  -0.000010  -0.000000  -0.000000   0.000004
    34  N    0.000526  -0.000072   0.000020   0.000052   0.003026   0.011516
    35  N   -0.000584   0.000004  -0.000000  -0.000000  -0.000010   0.000415
    36  C   -0.000013   0.000000  -0.000000  -0.000000  -0.000000  -0.000004
    37  H    0.000001  -0.000000  -0.000000   0.000000  -0.000000  -0.000001
    38  H    0.000001  -0.000000  -0.000000   0.000000  -0.000000  -0.000001
    39  H    0.000011  -0.000000   0.000000   0.000000   0.000000  -0.000000
    40  C   -0.000013  -0.000004  -0.000000  -0.000000  -0.000000   0.000000
    41  H    0.000001  -0.000001  -0.000000   0.000000  -0.000000  -0.000000
    42  H    0.000001  -0.000001  -0.000000   0.000000  -0.000000  -0.000000
    43  H    0.000011  -0.000000   0.000000   0.000000   0.000000  -0.000000
    44  Co   0.024416  -0.010905  -0.001552   0.001193  -0.001552  -0.010905
               7          8          9         10         11         12
     1  C   -0.000445  -0.000050  -0.000445  -0.000242   0.004720   0.000052
     2  C    0.000073   0.000021  -0.000063  -0.000019  -0.000966   0.000000
     3  C    0.002642   0.000071  -0.000024   0.000000   0.000002   0.000000
     4  C    0.000840  -0.000112   0.000840   0.000017   0.000026  -0.000000
     5  C   -0.000024   0.000071   0.002642   0.000327  -0.000185  -0.000008
     6  C   -0.000063   0.000021   0.000073  -0.000264  -0.006518   0.000023
     7  H   -0.003252  -0.000008  -0.000014  -0.000000   0.000000  -0.000000
     8  H   -0.000008  -0.005142  -0.000008  -0.000000   0.000000   0.000000
     9  H   -0.000014  -0.000008  -0.003252  -0.000090   0.000014   0.000001
    10  C   -0.000000  -0.000000  -0.000090  -0.001348   0.001782  -0.001986
    11  C    0.000000   0.000000   0.000014   0.001782   0.221908  -0.002044
    12  C   -0.000000   0.000000   0.000001  -0.001986  -0.002044  -0.028036
    13  C    0.000000   0.000000   0.000100   0.004604   0.000263   0.000621
    14  C    0.000000   0.000000   0.000000   0.000846   0.000549  -0.000601
    15  C    0.000000  -0.000000   0.000005  -0.000854  -0.000027   0.000219
    16  H   -0.000000  -0.000000  -0.000114  -0.000148  -0.000001  -0.000005
    17  C   -0.000000  -0.000000  -0.000000   0.000129  -0.000013  -0.000215
    18  H   -0.000000  -0.000000  -0.000000  -0.000010  -0.000002  -0.000053
    19  H   -0.000000  -0.000000  -0.000000   0.000003  -0.000000  -0.000008
    20  H    0.000000   0.000000   0.000000  -0.000004   0.000000   0.000013
    21  C   -0.000090  -0.000000  -0.000000  -0.000000   0.000001  -0.000000
    22  C    0.000014   0.000000   0.000000   0.000001   0.002031   0.000000
    23  C    0.000001   0.000000  -0.000000  -0.000000   0.000000   0.000000
    24  C    0.000100   0.000000   0.000000   0.000000   0.000000   0.000000
    25  C    0.000000   0.000000   0.000000   0.000000   0.000000   0.000000
    26  C    0.000005  -0.000000   0.000000  -0.000000  -0.000000   0.000000
    27  H   -0.000114  -0.000000  -0.000000  -0.000000   0.000000  -0.000000
    28  C   -0.000000  -0.000000  -0.000000  -0.000000  -0.000000   0.000000
    29  H   -0.000000  -0.000000  -0.000000   0.000000   0.000000  -0.000000
    30  H   -0.000000  -0.000000  -0.000000  -0.000000  -0.000000   0.000000
    31  H    0.000000   0.000000   0.000000   0.000000  -0.000000  -0.000000
    32  N   -0.000372   0.000000  -0.000001  -0.000000  -0.000048  -0.000000
    33  N    0.000002  -0.000000   0.000000   0.000000  -0.000005   0.000000
    34  N   -0.000001   0.000000  -0.000372  -0.001510  -0.029923   0.001482
    35  N    0.000000  -0.000000   0.000002  -0.001090  -0.044225   0.008151
    36  C    0.000000   0.000000   0.000000  -0.000033   0.000659   0.000350
    37  H   -0.000000  -0.000000  -0.000000   0.000005   0.000483  -0.000163
    38  H   -0.000000  -0.000000  -0.000000   0.000005   0.000483  -0.000163
    39  H   -0.000000  -0.000000  -0.000000   0.000001  -0.000583  -0.000049
    40  C    0.000000   0.000000   0.000000   0.000000  -0.000001  -0.000000
    41  H   -0.000000  -0.000000  -0.000000   0.000000   0.000000  -0.000000
    42  H   -0.000000  -0.000000  -0.000000   0.000000   0.000000  -0.000000
    43  H   -0.000000  -0.000000  -0.000000  -0.000000   0.000001   0.000000
    44  Co   0.000284   0.000009   0.000284   0.001398   0.059382   0.000086
              13         14         15         16         17         18
     1  C    0.000017   0.000001  -0.000000  -0.000001  -0.000000   0.000000
     2  C    0.000000   0.000000   0.000000  -0.000000  -0.000000  -0.000000
     3  C   -0.000000  -0.000000   0.000000  -0.000000   0.000000  -0.000000
     4  C    0.000004   0.000000  -0.000000   0.000002  -0.000000   0.000000
     5  C   -0.000228  -0.000001   0.000002   0.000046   0.000000   0.000000
     6  C   -0.000325  -0.000018   0.000009   0.000046   0.000001   0.000000
     7  H    0.000000   0.000000   0.000000  -0.000000  -0.000000  -0.000000
     8  H    0.000000   0.000000  -0.000000  -0.000000  -0.000000  -0.000000
     9  H    0.000100   0.000000   0.000005  -0.000114  -0.000000  -0.000000
    10  C    0.004604   0.000846  -0.000854  -0.000148   0.000129  -0.000010
    11  C    0.000263   0.000549  -0.000027  -0.000001  -0.000013  -0.000002
    12  C    0.000621  -0.000601   0.000219  -0.000005  -0.000215  -0.000053
    13  C    0.014794   0.000886  -0.008677   0.000196  -0.000999  -0.000005
    14  C    0.000886   0.051671  -0.002089  -0.000002  -0.005894   0.000046
    15  C   -0.008677  -0.002089   0.031661  -0.000004   0.005356  -0.000003
[...]
 
              Baa    -0.0058    -0.775    -0.277    -0.259  0.0000  0.0001  1.0000
    40 C(13)  Bbb    -0.0032    -0.428    -0.153    -0.143 -0.6583  0.7527 -0.0000
              Bcc     0.0090     1.203     0.429     0.401  0.7527  0.6583 -0.0000
 
              Baa    -0.0040    -2.123    -0.757    -0.708 -0.0328  0.3486  0.9367
    41 H(1)   Bbb    -0.0025    -1.337    -0.477    -0.446 -0.6725  0.6856 -0.2787
              Bcc     0.0065     3.460     1.234     1.154  0.7394  0.6391 -0.2119
 
              Baa    -0.0040    -2.122    -0.757    -0.708  0.0331 -0.3487  0.9367
    42 H(1)   Bbb    -0.0025    -1.337    -0.477    -0.446 -0.6725  0.6855  0.2790
              Bcc     0.0065     3.459     1.234     1.154  0.7394  0.6391  0.2118
 
              Baa    -0.0074    -3.961    -1.414    -1.321  0.0002 -0.0003  1.0000
    43 H(1)   Bbb    -0.0060    -3.202    -1.143    -1.068  0.7745 -0.6326 -0.0003
              Bcc     0.0134     7.163     2.556     2.389  0.6326  0.7745  0.0000
 
              Baa    -1.3811  -174.401   -62.231   -58.174  1.0000 -0.0000  0.0000
    44 Co(59) Bbb     0.3046    38.465    13.725    12.831  0.0000  1.0000 -0.0000
              Bcc     1.0765   135.936    48.505    45.343 -0.0000  0.0000  1.0000
 

 ---------------------------------------------------------------------------------

   1 Symmetry operations used in ECPInt.
 ECPInt:  NShTT=   11781 NPrTT=   71406 LenC2=    9554 LenP2D=   32162.
 LDataN:  DoStor=T MaxTD1= 7 Len=  274
 Calling FoFJK, ICntrl=      2127 FMM=F ISym2X=0 I1Cent= 0 IOpClX= 1 NMat=1 NMatS=1 NMatT=0.
 -------------------------------------------------------------------
 Center     Atomic                   Forces (Hartrees/Bohr)
 Number     Number              X              Y              Z
 -------------------------------------------------------------------
      1        6           0.000003083   -0.034259388    0.000012243
      2        6           0.057972578    0.052461601   -0.000003088
      3        6          -0.005379742   -0.003622224   -0.000000661
      4        6           0.000003146   -0.005081352    0.000000581
      5        6           0.005374702   -0.003621322    0.000000272
      6        6          -0.057971252    0.052462751   -0.000006675
      7        1          -0.000131998    0.001977165    0.000000556
      8        1          -0.000000114   -0.002353277   -0.000000212
      9        1           0.000132699    0.001977296    0.000000383
     10        6          -0.016092572   -0.002844913    0.000000141
     11        6           0.006735616    0.005317316   -0.000007254
     12        6           0.015595832    0.001881497    0.000000014
     13        6           0.016533528    0.004127216   -0.000000826
     14        6          -0.003618604    0.008689500    0.000000798
     15        6          -0.012615793    0.009427869    0.000000735
     16        1          -0.000553643   -0.000710111   -0.000000389
     17        6           0.001010047   -0.013366294   -0.000000175
     18        1           0.000609570   -0.001456176    0.000000106
     19        1           0.000988932    0.000476323    0.000000166
     20        1          -0.000400542    0.000416069   -0.000000228
     21        6           0.016086292   -0.002840794    0.000001840
     22        6          -0.006729151    0.005317379   -0.000007990
     23        6          -0.015587345    0.001892945   -0.000002166
     24        6          -0.016522035    0.004117392   -0.000001490
     25        6           0.003605860    0.008684755    0.000000271
     26        6           0.012602965    0.009432486    0.000000231
     27        1           0.000553535   -0.000707536   -0.000000088
     28        6          -0.000993387   -0.013366175    0.000000165
     29        1          -0.000608007   -0.001453065    0.000000245
     30        1          -0.000985194    0.000472247    0.000000228
     31        1           0.000392153    0.000414859   -0.000000244
     32        7          -0.047842032   -0.064150290    0.000001716
     33        7           0.023037207    0.024029663    0.000005707
     34        7           0.047835001   -0.064153938    0.000001037
     35        7          -0.023042179    0.024048251    0.000004357
     36        6           0.003152567   -0.013887794    0.000006463
     37        1          -0.000410712   -0.000056269    0.001075065
     38        1          -0.000412636   -0.000055708   -0.001080388
     39        1           0.001345275    0.001971848   -0.000000391
     40        6          -0.003145235   -0.013877702    0.000002521
     41        1           0.000410436   -0.000056006   -0.001076852
     42        1           0.000409984   -0.000057086    0.001074615
     43        1          -0.001347389    0.001972198   -0.000000101
     44       27          -0.000001448    0.020408795   -0.000001240
 -------------------------------------------------------------------
 Cartesian Forces:  Max     0.064153938 RMS     0.015614579

 GradGradGradGradGradGradGradGradGradGradGradGradGradGradGradGradGradGrad
 Berny optimization.
 Search for a local minimum.
 Step number   1 out of a maximum of    2
 All quantities printed in internal units (Hartrees-Bohrs-Radians)
 Second derivative matrix not updated -- first step.
 ITU=  0
     Eigenvalues ---    0.00057   0.00062   0.00201   0.00250   0.00251
     Eigenvalues ---    0.00396   0.00455   0.00620   0.00678   0.00709
     Eigenvalues ---    0.00724   0.00842   0.00850   0.01327   0.01608
     Eigenvalues ---    0.01816   0.02013   0.02042   0.02556   0.02557
     Eigenvalues ---    0.03094   0.03216   0.04120   0.04220   0.04475
     Eigenvalues ---    0.04533   0.04702   0.05398   0.05535   0.06369
     Eigenvalues ---    0.06423   0.06893   0.06917   0.07011   0.07064
     Eigenvalues ---    0.07066   0.07320   0.07704   0.07776   0.09609
     Eigenvalues ---    0.10184   0.10450   0.10473   0.11679   0.11939
     Eigenvalues ---    0.11994   0.12334   0.12489   0.12873   0.13427
     Eigenvalues ---    0.13465   0.13590   0.13714   0.14811   0.15614
     Eigenvalues ---    0.15978   0.16074   0.19689   0.20398   0.21151
     Eigenvalues ---    0.21270   0.22279   0.24265   0.25760   0.29012
     Eigenvalues ---    0.29718   0.30523   0.31058   0.31133   0.31652
     Eigenvalues ---    0.32660   0.35020   0.37133   0.38180   0.38447
     Eigenvalues ---    0.38807   0.41441   0.42638   0.45764   0.48352
     Eigenvalues ---    0.48613   0.49032   0.49439   0.51813   0.53495
     Eigenvalues ---    0.54015   0.55522   0.58113   0.63782   0.69156
     Eigenvalues ---    0.71639   0.73634   0.74142   0.83285   0.88076
     Eigenvalues ---    0.90608   0.91837   0.92665   0.94246   0.95284
     Eigenvalues ---    0.95893   0.97658   1.01553   1.03678   1.13076
     Eigenvalues ---    1.16087   1.16165   1.18004   1.21692   1.25207
     Eigenvalues ---    1.30776   1.37895   1.38361   1.45803   1.48375
     Eigenvalues ---    1.51023   1.52407   1.53844   1.61829   1.64922
     Eigenvalues ---    1.66384   1.67301   1.78237   1.79167   1.91499
     Eigenvalues ---    1.94134
 Angle between quadratic step and forces=  37.98 degrees.
 Linear search not attempted -- first point.
 B after Tr=     0.000000    0.000306   -0.000003
         Rot=    1.000000   -0.000000   -0.000000   -0.000000 Ang=  -0.00 deg.
 Variable       Old X    -DE/DX   Delta X   Delta X   Delta X     New X
                                 (Linear)    (Quad)   (Total)
    X1       -0.00000   0.00000   0.00000   0.00000   0.00000   0.00000
    Y1        1.36546  -0.03426   0.00000  -0.04317  -0.04286   1.32259
    Z1        0.00011   0.00001   0.00000   0.00002   0.00002   0.00012
    X2       -2.36909   0.05797   0.00000   0.04246   0.04246  -2.32663
    Y2        2.52993   0.05246   0.00000   0.01287   0.01317   2.54310
    Z2        0.00007  -0.00000   0.00000   0.00000   0.00000   0.00007
    X3       -2.32882  -0.00538   0.00000   0.00343   0.00343  -2.32540
    Y3        5.18802  -0.00362   0.00000   0.00115   0.00146   5.18948
    Z3        0.00000  -0.00000   0.00000   0.00002   0.00001   0.00002
    X4       -0.00000   0.00000   0.00000  -0.00000  -0.00000  -0.00000
    Y4        6.44982  -0.00508   0.00000  -0.00928  -0.00898   6.44084
    Z4        0.00002   0.00000   0.00000   0.00001   0.00001   0.00003
    X5        2.32883   0.00537   0.00000  -0.00344  -0.00344   2.32539
    Y5        5.18802  -0.00362   0.00000   0.00116   0.00146   5.18948
    Z5        0.00010   0.00000   0.00000  -0.00002  -0.00003   0.00008
    X6        2.36910  -0.05797   0.00000  -0.04246  -0.04246   2.32664
    Y6        2.52993   0.05246   0.00000   0.01287   0.01318   2.54310
    Z6        0.00016  -0.00001   0.00000  -0.00004  -0.00004   0.00012
    X7       -4.06507  -0.00013   0.00000   0.00544   0.00544  -4.05964
    Y7        6.27401   0.00198   0.00000   0.01052   0.01082   6.28483
    Z7       -0.00008   0.00000   0.00000   0.00005   0.00004  -0.00004
    X8        0.00000  -0.00000   0.00000  -0.00001  -0.00001  -0.00000
    Y8        8.50833  -0.00235   0.00000  -0.01603  -0.01572   8.49261
    Z8       -0.00002  -0.00000   0.00000   0.00002   0.00002  -0.00001
    X9        4.06508   0.00013   0.00000  -0.00545  -0.00545   4.05963
    Y9        6.27401   0.00198   0.00000   0.01053   0.01083   6.28484
    Z9        0.00010   0.00000   0.00000  -0.00002  -0.00002   0.00007
   X10        6.92421  -0.01609   0.00000  -0.00236  -0.00236   6.92185
   Y10        1.09748  -0.00284   0.00000  -0.00950  -0.00920   1.08829
   Z10       -0.00004   0.00000   0.00000  -0.00003  -0.00003  -0.00007
   X11        3.56746   0.00674   0.00000  -0.00739  -0.00739   3.56007
   Y11       -1.70509   0.00532   0.00000   0.00052   0.00082  -1.70427
   Z11        0.00018  -0.00001   0.00000  -0.00007  -0.00007   0.00011
   X12        7.85369   0.01560   0.00000   0.00756   0.00757   7.86126
   Y12       -1.40372   0.00188   0.00000   0.00557   0.00588  -1.39784
   Z12       -0.00018   0.00000   0.00000   0.00002   0.00002  -0.00016
   X13        8.53400   0.01653   0.00000   0.00910   0.00910   8.54310
   Y13        3.13948   0.00413   0.00000   0.00402   0.00432   3.14381
   Z13       -0.00010  -0.00000   0.00000  -0.00004  -0.00004  -0.00014
   X14       10.44187  -0.00362   0.00000  -0.00504  -0.00504  10.43683
   Y14       -1.89913   0.00869   0.00000   0.00801   0.00832  -1.89081
   Z14       -0.00039   0.00000   0.00000   0.00009   0.00009  -0.00030
   X15       11.15360  -0.01262   0.00000  -0.00971  -0.00971  11.14389
   Y15        2.63874   0.00943   0.00000   0.01007   0.01037   2.64911
   Z15       -0.00032   0.00000   0.00000   0.00002   0.00001  -0.00030
   X16        7.85964  -0.00055   0.00000  -0.00045  -0.00045   7.85919
   Y16        5.07241  -0.00071   0.00000  -0.00077  -0.00046   5.07195
   Z16        0.00003  -0.00000   0.00000  -0.00009  -0.00009  -0.00006
   X17       12.07465   0.00101   0.00000  -0.00522  -0.00522  12.06943
   Y17        0.19414  -0.01337   0.00000  -0.00732  -0.00701   0.18713
   Z17       -0.00046  -0.00000   0.00000   0.00008   0.00008  -0.00038
   X18       11.16262   0.00061   0.00000  -0.00611  -0.00611  11.15651
   Y18       -3.81452  -0.00146   0.00000   0.00288   0.00319  -3.81134
   Z18       -0.00047   0.00000   0.00000   0.00014   0.00013  -0.00034
   X19       12.45256   0.00099   0.00000  -0.00336  -0.00336  12.44920
   Y19        4.22366   0.00048   0.00000   0.00850   0.00880   4.23246
   Z19       -0.00037   0.00000   0.00000   0.00001   0.00001  -0.00036
   X20       14.10208  -0.00040   0.00000  -0.00649  -0.00649  14.09559
   Y20       -0.13438   0.00042   0.00000  -0.00689  -0.00658  -0.14097
   Z20       -0.00061  -0.00000   0.00000   0.00012   0.00011  -0.00049
   X21       -6.92420   0.01609   0.00000   0.00236   0.00236  -6.92184
   Y21        1.09747  -0.00284   0.00000  -0.00950  -0.00920   1.08828
   Z21       -0.00008   0.00000   0.00000   0.00001   0.00000  -0.00007
   X22       -3.56746  -0.00673   0.00000   0.00739   0.00739  -3.56007
   Y22       -1.70509   0.00532   0.00000   0.00051   0.00082  -1.70428
   Z22        0.00011  -0.00001   0.00000  -0.00004  -0.00004   0.00007
   X23       -7.85369  -0.01559   0.00000  -0.00756  -0.00756  -7.86125
   Y23       -1.40374   0.00189   0.00000   0.00558   0.00588  -1.39785
   Z23       -0.00011  -0.00000   0.00000   0.00002   0.00002  -0.00010
   X24       -8.53401  -0.01652   0.00000  -0.00909  -0.00908  -8.54309
   Y24        3.13948   0.00412   0.00000   0.00401   0.00431   3.14379
   Z24       -0.00009  -0.00000   0.00000  -0.00002  -0.00002  -0.00011
   X25      -10.44185   0.00361   0.00000   0.00503   0.00503 -10.43682
   Y25       -1.89914   0.00868   0.00000   0.00801   0.00832  -1.89082
   Z25       -0.00019   0.00000   0.00000   0.00004   0.00004  -0.00015
   X26      -11.15359   0.01260   0.00000   0.00971   0.00971 -11.14388
   Y26        2.63872   0.00943   0.00000   0.01007   0.01038   2.64910
   Z26       -0.00018   0.00000   0.00000   0.00000  -0.00000  -0.00018
   X27       -7.85964   0.00055   0.00000   0.00046   0.00046  -7.85918
   Y27        5.07240  -0.00071   0.00000  -0.00077  -0.00046   5.07193
   Z27       -0.00004  -0.00000   0.00000  -0.00004  -0.00004  -0.00008
   X28      -12.07466  -0.00099   0.00000   0.00524   0.00524 -12.06942
   Y28        0.19413  -0.01337   0.00000  -0.00731  -0.00701   0.18712
   Z28       -0.00023   0.00000   0.00000   0.00003   0.00003  -0.00020
   X29      -11.16261  -0.00061   0.00000   0.00611   0.00611 -11.15650
   Y29       -3.81454  -0.00145   0.00000   0.00289   0.00319  -3.81135
   Z29       -0.00021   0.00000   0.00000   0.00007   0.00007  -0.00014
   X30      -12.45256  -0.00099   0.00000   0.00337   0.00337 -12.44919
   Y30        4.22365   0.00047   0.00000   0.00849   0.00880   4.23244
   Z30       -0.00021   0.00000   0.00000  -0.00000  -0.00001  -0.00021
   X31      -14.10206   0.00039   0.00000   0.00647   0.00647 -14.09558
   Y31       -0.13440   0.00041   0.00000  -0.00689  -0.00658  -0.14098
   Z31       -0.00028  -0.00000   0.00000   0.00004   0.00004  -0.00025
   X32       -4.28819  -0.04784   0.00000  -0.01828  -0.01828  -4.30647
   Y32        0.90488  -0.06415   0.00000  -0.05456  -0.05426   0.85062
   Z32        0.00003   0.00000   0.00000   0.00000   0.00000   0.00003
   X33       -5.83376   0.02304   0.00000   0.02662   0.02663  -5.80713
   Y33       -3.02767   0.02403   0.00000   0.02516   0.02546  -3.00221
   Z33       -0.00008   0.00001   0.00000   0.00002   0.00001  -0.00006
   X34        4.28821   0.04784   0.00000   0.01827   0.01827   4.30648
   Y34        0.90489  -0.06415   0.00000  -0.05456  -0.05426   0.85064
   Z34        0.00016   0.00000   0.00000  -0.00004  -0.00005   0.00011
   X35        5.83377  -0.02304   0.00000  -0.02663  -0.02663   5.80715
   Y35       -3.02768   0.02405   0.00000   0.02518   0.02548  -3.00220
   Z35       -0.00007   0.00000   0.00000  -0.00002  -0.00002  -0.00009
   X36        5.99732   0.00315   0.00000  -0.01376  -0.01376   5.98356
   Y36       -5.70155  -0.01389   0.00000  -0.00265  -0.00234  -5.70389
   Z36       -0.00000   0.00001   0.00000  -0.00003  -0.00004  -0.00004
   X37        6.99859  -0.00041   0.00000  -0.01903  -0.01903   6.97955
   Y37       -6.38204  -0.00006   0.00000  -0.00933  -0.00902  -6.39106
   Z37       -1.68686   0.00108   0.00000   0.00336   0.00336  -1.68350
   X38        6.99780  -0.00041   0.00000  -0.01912  -0.01912   6.97868
   Y38       -6.38203  -0.00006   0.00000  -0.00940  -0.00909  -6.39112
   Z38        1.68735  -0.00108   0.00000  -0.00343  -0.00344   1.68392
   X39        4.09260   0.00135   0.00000  -0.01673  -0.01673   4.07587
   Y39       -6.50779   0.00197   0.00000   0.01938   0.01969  -6.48810
   Z39       -0.00046  -0.00000   0.00000  -0.00011  -0.00011  -0.00057
   X40       -5.99731  -0.00315   0.00000   0.01377   0.01377  -5.98354
   Y40       -5.70156  -0.01388   0.00000  -0.00265  -0.00234  -5.70390
   Z40        0.00007   0.00000   0.00000   0.00002   0.00001   0.00009
   X41       -6.99766   0.00041   0.00000   0.01911   0.01911  -6.97856
   Y41       -6.38202  -0.00006   0.00000  -0.00936  -0.00905  -6.39107
   Z41        1.68750  -0.00108   0.00000  -0.00336  -0.00337   1.68413
   X42       -6.99868   0.00041   0.00000   0.01904   0.01904  -6.97964
   Y42       -6.38207  -0.00006   0.00000  -0.00935  -0.00905  -6.39112
   Z42       -1.68671   0.00107   0.00000   0.00342   0.00342  -1.68329
   X43       -4.09258  -0.00135   0.00000   0.01673   0.01673  -4.07585
   Y43       -6.50779   0.00197   0.00000   0.01938   0.01968  -6.48811
   Z43       -0.00051  -0.00000   0.00000  -0.00003  -0.00003  -0.00054
   X44        0.00001  -0.00000   0.00000   0.00000   0.00000   0.00001
   Y44       -2.26086   0.02041   0.00000   0.03852   0.03882  -2.22204
   Z44        0.00022  -0.00000   0.00000  -0.00006  -0.00006   0.00015
         Item               Value     Threshold  Converged?
 Maximum Force            0.064154     0.000450     NO 
 RMS     Force            0.015615     0.000300     NO 
 Maximum Displacement     0.054259     0.001800     NO 
 RMS     Displacement     0.013096     0.001200     NO 
 Predicted change in Energy=-1.063933D-02
 GradGradGradGradGradGradGradGradGradGradGradGradGradGradGradGradGradGrad

 Unable to Open any file for archive entry.
 1\1\GINC-X11P1N5\Force\UPBE1PBE\GenECP\C22H17Co1N4(3)\MAYUMIAO\17-Jul-
 2024\0\\# pbe1pbe em=gd3bj genecp g09default scf=(xqc,maxcycle=64) for
 ce guess=read nosymm\\Title Card\\0,3\C,-0.00000075,0.72256914,0.00005
 726\C,-1.25367026,1.33877966,0.00003482\C,-1.23236107,2.74538162,0.000
 00262\C,-0.00000034,3.41309562,0.00001296\C,1.23236553,2.74538084,0.00
 005344\C,1.25367264,1.33877893,0.00008623\H,-2.15114422,3.32006271,-0.
 00004448\H,0.00000064,4.50241506,-0.00001192\H,2.15114589,3.32006415,0
 .00005093\C,3.66413565,0.58076352,-0.00002022\C,1.88781867,-0.90229601
 ,0.00009583\C,4.15599453,-0.74281695,-0.0000953\C,4.5160003,1.66134321
 ,-0.00005459\C,5.52559836,-1.00497708,-0.00020379\C,5.90223089,1.39636
 057,-0.00016691\H,4.15914172,2.68420214,0.00001405\C,6.38962911,0.1027
 3589,-0.00024252\H,5.90700472,-2.01855833,-0.00025102\H,6.58961122,2.2
 3506414,-0.00019563\H,7.46249729,-0.07111339,-0.00032248\C,-3.6641293,
 0.58075741,-0.0000401\C,-1.88781723,-0.90229688,0.00005923\C,-4.155992
 64,-0.74282672,-0.0000593\C,-4.51600357,1.66134179,-0.0000495\C,-5.525
 58809,-1.0049821,-0.00010101\C,-5.90222365,1.3963496,-0.00009544\H,-4.
 15914162,2.68419583,-0.00002152\C,-6.38963299,0.10272667,-0.0001228\H,
 -5.90699768,-2.01856796,-0.00011125\H,-6.58961274,2.23505709,-0.000108
 51\H,-7.46248769,-0.07112352,-0.00015036\N,-2.26921364,0.47884227,0.00
 001785\N,-3.08709042,-1.60217328,-0.00004092\N,2.26922191,0.47884864,0
 .00008478\N,3.08709977,-1.60217864,-0.00003795\C,3.17364706,-3.0171281
 8,-0.00000161\H,3.70349217,-3.37722869,-0.8926491\H,3.70307534,-3.3772
 2624,0.89290838\H,2.16571303,-3.44377391,-0.00024151\C,-3.17364124,-3.
 01713694,0.00003881\H,-3.70300336,-3.37721802,0.89298586\H,-3.70354192
 ,-3.37724517,-0.89256953\H,-2.16570103,-3.44377598,-0.00026802\Co,0.00
 000496,-1.19639553,0.00011419\\Version=ES64L-G16RevC.01\HF=-1212.12279
 11\S2=2.175823\S2-1=0.\S2A=2.004139\RMSD=1.660e-09\RMSF=1.561e-02\Dipo
 le=-0.0000818,-1.4145234,0.0000694\Quadrupole=8.5254464,10.8090443,-19
 .3344907,0.0002235,-0.0002834,-0.0006858\PG=C01 [X(C22H17Co1N4)]\\@
 The archive entry for this job was punched.


 DO YOU KNOW THAT THE LETTERS IN "EPISCOPAL", WHEN
 REARRANGED, SPELL "PEPSI COLA"?
 Job cpu time:       0 days  0 hours 56 minutes 39.7 seconds.
 Elapsed time:       0 days  0 hours  1 minutes  1.6 seconds.
 File lengths (MBytes):  RWF=    184 Int=      0 D2E=      0 Chk=     72 Scr=      1
 Normal termination of Gaussian 16 at Wed Jul 17 20:36:33 2024.
