 Entering Gaussian System, Link 0=g16
 Input=JOBS/20_B.gjf
 Output=JOBS/20_B.log
 Initial command:
 /data/app/gaussian/C01-avx2//g16/l1.exe "/tmp/Gau-2068852.inp" -scrdir="/tmp/"
 Entering Link 1 = /data/app/gaussian/C01-avx2//g16/l1.exe PID=   2068853.
  
 Copyright (c) 1988-2019, Gaussian, Inc.  All Rights Reserved.
  
 This is part of the Gaussian(R) 16 program.  It is based on
 the Gaussian(R) 09 system (copyright 2009, Gaussian, Inc.),
 the Gaussian(R) 03 system (copyright 2003, Gaussian, Inc.),
 the Gaussian(R) 98 system (copyright 1998, Gaussian, Inc.),
 the Gaussian(R) 94 system (copyright 1995, Gaussian, Inc.),
 the Gaussian 92(TM) system (copyright 1992, Gaussian, Inc.),
 the Gaussian 90(TM) system (copyright 1990, Gaussian, Inc.),
 the Gaussian 88(TM) system (copyright 1988, Gaussian, Inc.),
 the Gaussian 86(TM) system (copyright 1986, Carnegie Mellon
 University), and the Gaussian 82(TM) system (copyright 1983,
 Carnegie Mellon University). Gaussian is a federally registered
 trademark of Gaussian, Inc.
  
 This software contains proprietary and confidential information,
 including trade secrets, belonging to Gaussian, Inc.
  
 This software is provided under written license and may be
 used, copied, transmitted, or stored only in accord with that
 written license.
  
 The following legend is applicable only to US Government
 contracts under FAR:
  
                    RESTRICTED RIGHTS LEGEND
  
 Use, reproduction and disclosure by the US Government is
 subject to restrictions as set forth in subparagraphs (a)
 and (c) of the Commercial Computer Software - Restricted
 Rights clause in FAR 52.227-19.
  
 Gaussian, Inc.
 340 Quinnipiac St., Bldg. 40, Wallingford CT 06492
  
  
 ---------------------------------------------------------------
 Warning -- This program may not be used in any manner that
 competes with the business of Gaussian, Inc. or will provide
 assistance to any competitor of Gaussian, Inc.  The licensee
 of this program is prohibited from giving any competitor of
 Gaussian, Inc. access to this program.  By using this program,
 the user acknowledges that Gaussian, Inc. is engaged in the
 business of creating and licensing software in the field of
 computational chemistry and represents and warrants to the
 licensee that it is not a competitor of Gaussian, Inc. and that
 it will not use this program in any manner prohibited above.
 ---------------------------------------------------------------
  

 Cite this work as:
 Gaussian 16, Revision C.01,
 M. J. Frisch, G. W. Trucks, H. B. Schlegel, G. E. Scuseria, 
 M. A. Robb, J. R. Cheeseman, G. Scalmani, V. Barone, 
 G. A. Petersson, H. Nakatsuji, X. Li, M. Caricato, A. V. Marenich, 
 J. Bloino, B. G. Janesko, R. Gomperts, B. Mennucci, H. P. Hratchian, 
 J. V. Ortiz, A. F. Izmaylov, J. L. Sonnenberg, D. Williams-Young, 
 F. Ding, F. Lipparini, F. Egidi, J. Goings, B. Peng, A. Petrone, 
 T. Henderson, D. Ranasinghe, V. G. Zakrzewski, J. Gao, N. Rega, 
 G. Zheng, W. Liang, M. Hada, M. Ehara, K. Toyota, R. Fukuda, 
 J. Hasegawa, M. Ishida, T. Nakajima, Y. Honda, O. Kitao, H. Nakai, 
 T. Vreven, K. Throssell, J. A. Montgomery, Jr., J. E. Peralta, 
 F. Ogliaro, M. J. Bearpark, J. J. Heyd, E. N. Brothers, K. N. Kudin, 
 V. N. Staroverov, T. A. Keith, R. Kobayashi, J. Normand, 
 K. Raghavachari, A. P. Rendell, J. C. Burant, S. S. Iyengar, 
 J. Tomasi, M. Cossi, J. M. Millam, M. Klene, C. Adamo, R. Cammi, 
 J. W. Ochterski, R. L. Martin, K. Morokuma, O. Farkas, 
 J. B. Foresman, and D. J. Fox, Gaussian, Inc., Wallingford CT, 2019.
 
 ******************************************
 Gaussian 16:  ES64L-G16RevC.01  3-Jul-2019
                17-Jul-2024 
 ******************************************
 %chk=b.chk
 %nprocshared=56
 Will use up to   56 processors via shared memory.
 %mem=96gb
 ----------------------------------------------------------------------
 # pbe1pbe em=gd3bj genecp g09default scf=(xqc,maxcycle=64) force guess
 =read nosymm
 ----------------------------------------------------------------------
 1/10=7,30=1,38=1,158=3,167=1/1,3;
 2/12=2,15=1,17=6,18=5,40=1/2;
 3/5=7,11=2,16=1,17=8,25=1,27=10,30=1,71=1,74=-13,75=-4,116=-2,124=41,158=3/1,2,3;
 4/5=1,60=-1/1;
 5/5=2,7=64,8=3,13=1,38=6,87=10/2,8;
 6/7=2,8=2,9=2,10=2,28=1,87=10/1;
 7/29=1,30=1,87=10/1,2,3,16;
 1/10=7,30=1,158=3,167=1/3;
 99//99;
 Using 2006 physical constants.
 ----------
 Title Card
 ----------
 Symbolic Z-matrix:
 Charge =  0 Multiplicity = 3
 6                     0.        0.72292   0.0001 
 6                    -1.25099   1.35436   0.00003 
 6                    -1.24087   2.74752  0. 
 6                     0.        3.40362   0.00001 
 6                     1.24087   2.74752   0.00005 
 6                     1.25099   1.35436   0.00007 
 1                    -2.15508   3.3264   -0.00004 
 1                     0.        4.49019  -0.00001 
 1                     2.15508   3.3264    0.00005 
 6                     3.66967   0.58041  -0.00002 
 6                     1.89726  -0.90017   0.0001 
 6                     4.16773  -0.74134  -0.0001 
 6                     4.52906   1.66421  -0.00005 
 6                     5.53206  -1.00206  -0.0002 
 6                     5.90856   1.40118  -0.00017 
 1                     4.16328   2.68388   0.00001 
 6                     6.39647   0.1013   -0.00024 
 1                     5.90968  -2.01938  -0.00025 
 1                     6.59993   2.23804  -0.0002 
 1                     7.46804  -0.07119  -0.00032 
 6                    -3.66967   0.58041  -0.00004 
 6                    -1.89725  -0.90017   0.00006 
 6                    -4.16772  -0.74134  -0.00007 
 6                    -4.52906   1.6642   -0.00005 
 6                    -5.53206  -1.00207  -0.0001 
 6                    -5.90856   1.40117  -0.0001 
 1                    -4.16328   2.68388  -0.00002 
 6                    -6.39646   0.10129  -0.00012 
 1                    -5.90967  -2.01939  -0.00011 
 1                    -6.59993   2.23803  -0.00011 
 1                    -7.46804  -0.0712   -0.00015 
 7                    -2.28726   0.46464   0.00001 
 7                    -3.09108  -1.59741  -0.00004 
 7                     2.28726   0.46464   0.00009 
 7                     3.09108  -1.5974   -0.00004 
 6                     3.18186  -3.02308   0.00001 
 1                     3.70647  -3.38488  -0.89292 
 1                     3.70604  -3.38489   0.89318 
 1                     2.17276  -3.44374  -0.00025 
 6                    -3.18186  -3.02309   0.00004 
 1                    -3.70597  -3.38488   0.89326 
 1                    -3.70652  -3.3849   -0.89284 
 1                    -2.17275  -3.44375  -0.00028 
 27                    0.00001  -1.19018   0.00011 
 

 GradGradGradGradGradGradGradGradGradGradGradGradGradGradGradGradGradGrad
 Berny optimization.
 Initialization pass.
 Trust Radius=3.00D-01 FncErr=1.00D-07 GrdErr=1.00D-07 EigMax=2.50D+02 EigMin=1.00D-04
 Number of steps in this run=      2 maximum allowed number of steps=      2.
 GradGradGradGradGradGradGradGradGradGradGradGradGradGradGradGradGradGrad

                          Input orientation:                          
 ---------------------------------------------------------------------
 Center     Atomic      Atomic             Coordinates (Angstroms)
 Number     Number       Type             X           Y           Z
 ---------------------------------------------------------------------
      1          6           0        0.000001    0.722918    0.000099
      2          6           0       -1.250988    1.354364    0.000031
      3          6           0       -1.240869    2.747519   -0.000003
      4          6           0        0.000002    3.403622    0.000013
      5          6           0        1.240872    2.747519    0.000047
      6          6           0        1.250992    1.354362    0.000073
      7          1           0       -2.155081    3.326399   -0.000045
      8          1           0        0.000001    4.490188   -0.000011
      9          1           0        2.155084    3.326400    0.000049
     10          6           0        3.669670    0.580407   -0.000023
     11          6           0        1.897255   -0.900171    0.000102
     12          6           0        4.167728   -0.741338   -0.000098
     13          6           0        4.529063    1.664209   -0.000053
     14          6           0        5.532064   -1.002059   -0.000201
     15          6           0        5.908557    1.401180   -0.000169
     16          1           0        4.163284    2.683882    0.000012
     17          6           0        6.396469    0.101303   -0.000242
     18          1           0        5.909676   -2.019379   -0.000248
     19          1           0        6.599930    2.238042   -0.000196
     20          1           0        7.468044   -0.071189   -0.000325
     21          6           0       -3.669670    0.580406   -0.000036
     22          6           0       -1.897248   -0.900174    0.000058
     23          6           0       -4.167718   -0.741345   -0.000065
     24          6           0       -4.529060    1.664200   -0.000051
     25          6           0       -5.532060   -1.002068   -0.000102
     26          6           0       -5.908557    1.401172   -0.000097
     27          1           0       -4.163284    2.683878   -0.000022
     28          6           0       -6.396464    0.101294   -0.000122
     29          1           0       -5.909669   -2.019387   -0.000108
     30          1           0       -6.599931    2.238033   -0.000109
     31          1           0       -7.468039   -0.071200   -0.000151
     32          7           0       -2.287260    0.464640    0.000015
     33          7           0       -3.091081   -1.597405   -0.000040
     34          7           0        2.287264    0.464642    0.000088
     35          7           0        3.091083   -1.597399   -0.000043
     36          6           0        3.181864   -3.023083    0.000006
     37          1           0        3.706472   -3.384884   -0.892916
     38          1           0        3.706041   -3.384887    0.893181
     39          1           0        2.172756   -3.443744   -0.000252
     40          6           0       -3.181855   -3.023086    0.000044
     41          1           0       -3.705970   -3.384878    0.893261
     42          1           0       -3.706522   -3.384904   -0.892836
     43          1           0       -2.172746   -3.443745   -0.000280
     44         27           0        0.000008   -1.190178    0.000105
 ---------------------------------------------------------------------
                    Distance matrix (angstroms):
                    1          2          3          4          5
     1  C    0.000000
     2  C    1.401320   0.000000
     3  C    2.374608   1.393192   0.000000
     4  C    2.680704   2.400924   1.403649   0.000000
     5  C    2.374610   2.854864   2.481741   1.403649   0.000000
     6  C    1.401321   2.501980   2.854865   2.400925   1.393194
     7  H    3.379718   2.169403   1.082075   2.156466   3.444938
     8  H    3.767270   3.376147   2.139312   1.086566   2.139312
     9  H    3.379719   3.935766   3.444938   2.156465   1.082075
    10  C    3.672435   4.981153   5.367473   4.630012   3.255063
    11  C    2.496796   3.872255   4.811804   4.703425   3.706276
    12  C    4.417465   5.809858   6.436229   5.877979   4.553967
    13  C    4.625844   5.788350   5.870747   4.851593   3.462046
    14  C    5.794763   7.180705   7.741573   7.072040   5.698568
    15  C    5.947359   7.159699   7.275089   6.238654   4.857975
    16  H    4.601990   5.575120   5.404527   4.225038   2.923105
    17  C    6.426601   7.749436   8.082783   7.198618   5.795053
    18  H    6.514941   7.915633   8.593812   8.020798   6.672410
    19  H    6.771608   7.900494   7.857334   6.702062   5.383222
    20  H    7.510145   8.834802   9.153703   8.236867   6.835407
    21  C    3.672437   2.539495   3.255066   4.630015   5.367476
    22  C    2.496794   2.345334   3.706278   4.703426   4.811804
    23  C    4.417459   3.591561   4.553967   5.877979   6.436227
    24  C    4.625841   3.292682   3.462049   4.851597   5.870749
    25  C    5.794762   4.886752   5.698571   7.072044   7.741576
    26  C    5.947360   4.657805   4.857980   6.238660   7.275094
    27  H    4.601989   3.201418   2.923108   4.225041   5.404530
    28  C    6.426599   5.295857   5.795055   7.198620   8.082784
    29  H    6.514939   5.752000   6.672412   8.020800   8.593813
    30  H    6.771608   5.421445   5.383226   6.702067   7.857338
    31  H    7.510143   6.378398   6.835410   8.236870   9.153705
    32  N    2.301797   1.365821   2.511268   3.724135   4.202291
    33  N    3.865060   3.478345   4.722462   5.879206   6.135486
    34  N    2.301799   3.648401   4.202290   3.724133   2.511267
    35  N    3.865057   5.250380   6.135480   5.879200   4.722457
    36  C    4.914954   6.229945   7.270516   7.171247   6.088292
    37  H    5.604413   6.916229   7.929681   7.785824   6.669553
    38  H    5.604141   6.915949   7.929445   7.785649   6.669419
    39  H    4.699142   5.894392   7.069976   7.183821   6.261002
    40  C    4.914952   4.784382   6.088292   7.171247   7.270516
    41  H    5.604101   5.411581   6.669403   7.785618   7.929399
    42  H    5.604449   5.411794   6.669573   7.785858   7.929727
    43  H    4.699139   4.885846   6.261002   7.183820   7.069975
    44  Co   1.913096   2.835434   4.128587   4.593800   4.128584
                    6          7          8          9         10
     6  C    0.000000
     7  H    3.935767   0.000000
     8  H    3.376149   2.449241   0.000000
     9  H    2.169405   4.310165   2.449242   0.000000
    10  C    2.539491   6.439581   5.362170   3.135993   0.000000
    11  C    2.345331   5.855367   5.714503   4.234428   2.309451
    12  C    3.591561   7.518271   6.688708   4.538417   1.412470
    13  C    3.292682   6.887718   5.338405   2.898044   1.383179
    14  C    4.886748   8.822004   7.795416   5.489951   2.443913
    15  C    4.657801   8.290280   6.667309   4.218417   2.384593
    16  H    3.201417   6.350950   4.538245   2.108482   2.160617
    17  C    5.295856   9.139488   7.757391   5.328282   2.768568
    18  H    5.751997   9.675622   8.791970   6.532558   3.431693
    19  H    5.421442   8.822400   6.973610   4.576154   3.366627
    20  H    6.378396  10.205300   8.750876   6.306438   3.853858
    21  C    4.981156   3.135994   5.362171   6.439584   7.339340
    22  C    3.872253   4.234430   5.714504   5.855367   5.760442
    23  C    5.809854   4.538419   6.688708   7.518269   7.948061
    24  C    5.788350   2.898048   5.338408   6.887720   8.270053
    25  C    7.180706   5.489956   7.795420   8.822007   9.336812
    26  C    7.159702   4.218422   6.667314   8.290284   9.613329
    27  H    5.575122   2.108485   4.538248   6.350953   8.110472
    28  C    7.749435   5.328286   7.757393   9.139490  10.077529
    29  H    7.915632   6.532562   8.791971   9.675623   9.925858
    30  H    7.900497   4.576159   6.973615   8.822405  10.402520
    31  H    8.834802   6.306442   8.750879  10.205302  11.156754
    32  N    3.648401   2.864810   4.629967   5.284325   5.958055
    33  N    5.250384   5.011981   6.827414   7.194867   7.102860
    34  N    1.365819   5.284324   4.629966   2.864809   1.387245
    35  N    3.478338   7.194862   6.827409   5.011975   2.253353
    36  C    4.784380   8.294511   8.159258   6.431968   3.636357
    37  H    5.411771   8.955241   8.749398   6.945900   4.064744
    38  H    5.411598   8.954997   8.749248   6.945828   4.064811
    39  H    4.885844   8.035236   8.226065   6.770167   4.293546
    40  C    6.229942   6.431969   8.159258   8.294510   7.741354
    41  H    6.915898   6.945826   8.749218   8.954945   8.421491
    42  H    6.916276   6.945908   8.749430   8.955293   8.421937
    43  H    5.894388   6.770168   8.226064   8.035234   7.094197
    44  Co   2.835427   5.004386   5.680366   5.004381   4.074480
                   11         12         13         14         15
    11  C    0.000000
    12  C    2.276022   0.000000
    13  C    3.674569   2.432533   0.000000
    14  C    3.636237   1.389024   2.848683   0.000000
    15  C    4.624582   2.760592   1.404346   2.432551   0.000000
    16  H    4.240321   3.425223   1.083295   3.931886   2.165942
    17  C    4.609325   2.382714   2.435134   1.401643   1.388429
    18  H    4.165591   2.160503   3.933816   1.085141   3.420559
    19  H    5.653630   3.846077   2.148901   3.411538   1.085511
    20  H    5.632131   3.367668   3.413095   2.148147   2.144730
    21  C    5.760449   7.948070   8.270058   9.336815   9.613330
    22  C    3.794503   6.067056   6.919070   7.430011   8.137987
    23  C    6.067053   8.335446   9.023341   9.703286  10.301541
    24  C    6.919070   9.023344   9.058123  10.408418  10.440931
    25  C    7.430013   9.703291  10.408421  11.064124  11.690309
    26  C    8.137991  10.301548  10.440934  11.690310  11.817115
    27  H    7.040990   9.007656   8.751949  10.372363  10.153191
    28  C    8.353963  10.597744  11.036749  11.979448  12.373490
    29  H    7.886742  10.158117  11.069598  11.486871  12.303282
    30  H    9.058173  11.172249  11.143778  12.557210  12.536451
    31  H    9.401911  11.655049  12.121968  13.033388  13.457386
    32  N    4.401464   6.566678   6.921071   7.955693   8.249154
    33  N    5.036828   7.309115   8.288832   8.643673   9.486043
    34  N    1.419444   2.233951   2.542563   3.560891   3.740437
    35  N    1.382517   1.375502   3.564529   2.512532   4.114564
    36  C    2.481325   2.485616   4.877053   3.099674   5.197014
    37  H    3.200710   2.828112   5.192995   3.131706   5.343462
    38  H    3.200486   2.828331   5.193130   3.132149   5.343743
    39  H    2.558449   3.359005   5.625243   4.152924   6.117965
    40  C    5.504919   7.695632   9.023801   8.945219  10.109883
    41  H    6.194161   8.353533   9.700879   9.582139  10.776999
    42  H    6.194639   8.353996   9.701313   9.582600  10.777440
    43  H    4.799446   6.892360   8.426473   8.082446   9.422355
    44  Co   1.919284   4.191819   5.353491   5.535254   6.451829
                   16         17         18         19         20
    16  H    0.000000
    17  C    3.414210   0.000000
    18  H    5.017027   2.175836   0.000000
    19  H    2.477099   2.146403   4.313013   0.000000
    20  H    4.302541   1.085370   2.494786   2.467016   0.000000
    21  C    8.110474  10.077534   9.925863  10.402521  11.156758
    22  C    7.040988   8.353963   7.886741   9.058170   9.401910
    23  C    9.007651  10.597740  10.158112  11.172242  11.655045
    24  C    8.751948  11.036749  11.069597  11.143775  12.121967
    25  C   10.372363  11.979450  11.486872  12.557209  13.033389
    26  C   10.153193  12.373493  12.303285  12.536451  13.457389
    27  H    8.326567  10.870973  11.116886  10.772444  11.953166
    28  C   10.870972  12.792932  12.487527  13.170875  13.865581
    29  H   11.116884  12.487527  11.819345  13.214226  13.518827
    30  H   10.772445  13.170878  13.214228  13.199861  14.256242
    31  H   11.953165  13.865581  13.518826  14.256240  14.936083
    32  N    6.821624   8.691327   8.565052   9.062401   9.770009
    33  N    8.423493   9.638424   9.010643  10.422397  10.668855
    34  N    2.905938   4.125237   4.392293   4.663050   5.208417
    35  N    4.413500   3.716337   2.850006   5.198328   4.635418
    36  C    5.790737   4.482797   2.906610   6.273963   5.204327
    37  H    6.151091   4.492934   2.741454   6.386419   5.091829
    38  H    6.151161   4.493342   2.742049   6.386708   5.092309
    39  H    6.442826   5.514264   3.999173   7.202955   6.278073
    40  C    9.301643  10.075023   9.146768  11.106880  11.051428
    41  H    9.977620  10.724322   9.753132  11.774000  11.689210
    42  H    9.978036  10.724775   9.753596  11.774434  11.689663
    43  H    8.814369   9.273555   8.206971  10.451916  10.213666
    44  Co   5.686933   6.525537   5.967558   7.437181   7.551404
                   21         22         23         24         25
    21  C    0.000000
    22  C    2.309458   0.000000
    23  C    1.412472   2.276019   0.000000
    24  C    1.383170   3.674568   2.432532   0.000000
    25  C    2.443915   3.636239   1.389030   2.848682   0.000000
    26  C    2.384591   4.624586   2.760598   1.404349   2.432553
    27  H    2.160613   4.240324   3.425226   1.083299   3.931889
    28  C    2.768565   4.609325   2.382718   2.435132   1.401643
    29  H    3.431693   4.165592   2.160506   3.933814   1.085139
    30  H    3.366624   5.653633   3.846082   2.148905   3.411540
    31  H    3.853855   5.632132   3.367672   3.413094   2.148146
    32  N    1.387249   1.419446   2.233947   2.542560   3.560892
    33  N    2.253360   1.382523   1.375495   3.564527   2.512529
    34  N    5.958059   4.401461   6.566673   6.921070   7.955693
    35  N    7.102860   5.036822   7.309106   8.288825   8.643669
    36  C    7.741360   5.504918   7.695628   9.023800   8.945220
    37  H    8.421890   6.194583   8.353942   9.701260   9.582556
    38  H    8.421550   6.194217   8.353580   9.700930   9.582186
    39  H    7.094204   4.799446   6.892356   8.426472   8.082448
    40  C    3.636361   2.481325   2.485613   4.877049   3.099673
    41  H    4.064822   3.200475   2.828341   5.193137   3.132169
    42  H    4.064743   3.200721   2.828100   5.192984   3.131688
    43  H    4.293550   2.558448   3.359000   5.625239   4.152923
    44  Co   4.074495   1.919292   4.191824   5.353497   5.535265
                   26         27         28         29         30
    26  C    0.000000
    27  H    2.165945   0.000000
    28  C    1.388429   3.414211   0.000000
    29  H    3.420559   5.017028   2.175835   0.000000
    30  H    1.085511   2.477101   2.146404   4.313014   0.000000
    31  H    2.144729   4.302542   1.085370   2.494785   2.467016
    32  N    3.740439   2.905939   4.125236   4.392293   4.663052
    33  N    4.114564   4.413503   3.716333   2.850000   5.198328
    34  N    8.249156   6.821625   8.691325   8.565051   9.062403
    35  N    9.486041   8.423490   9.638418   9.010639  10.422394
    36  C   10.109886   9.301645  10.075023   9.146768  11.106883
    37  H   10.777395   9.977985  10.724729   9.753555  11.774389
    38  H   10.777051   9.977675  10.724367   9.753175  11.774050
    39  H    9.422358   8.814372   9.273555   8.206971  10.451920
    40  C    5.197015   5.790738   4.482796   2.906609   6.273963
    41  H    5.343759   6.151170   4.493361   2.742073   6.386725
    42  H    5.343451   6.151087   4.492917   2.741433   6.386407
    43  H    6.117966   6.442826   5.514263   3.999173   7.202955
    44  Co   6.451840   5.686942   6.525546   5.967568   7.437192
                   31         32         33         34         35
    31  H    0.000000
    32  N    5.208416   0.000000
    33  N    4.635414   2.213179   0.000000
    34  N    9.770008   4.574524   5.760090   0.000000
    35  N   10.668850   5.760086   6.182165   2.213174   0.000000
    36  C   11.051427   6.486566   6.432915   3.600630   1.428571
    37  H   11.689620   7.179205   7.085128   4.198865   2.090700
    38  H   11.689253   7.178877   7.084759   4.198740   2.090726
    39  H   10.213667   5.930195   5.578257   3.910063   2.062114
    40  C    5.204326   3.600630   1.428567   6.486564   6.432911
    41  H    5.092329   4.198740   2.090726   7.178817   7.084702
    42  H    5.091810   4.198866   2.090694   7.179261   7.085174
    43  H    6.278072   3.910063   2.062113   5.930192   5.578252
    44  Co   7.551413   2.823123   3.117798   2.823113   3.117784
                   36         37         38         39         40
    36  C    0.000000
    37  H    1.097006   0.000000
    38  H    1.097008   1.786097   0.000000
    39  H    1.093277   1.775555   1.775570   0.000000
    40  C    6.363719   6.955381   6.954977   5.371109   0.000000
    41  H    6.954930   7.624613   7.412011   5.946533   1.097008
    42  H    6.955425   7.412994   7.624694   5.946939   1.097006
    43  H    5.371109   5.946887   5.946586   4.345502   1.093277
    44  Co   3.672022   4.399102   4.398751   3.130398   3.672030
                   41         42         43         44
    41  H    0.000000
    42  H    1.786097   0.000000
    43  H    1.775572   1.775553   0.000000
    44  Co   4.398717   4.399151   3.130403   0.000000
 Symmetry turned off by external request.
 Stoichiometry    C22H17CoN4(3)
 Framework group  C1[X(C22H17CoN4)]
 Deg. of freedom   126
 Full point group                 C1      NOp   1
 Rotational constants (GHZ):           0.4687209           0.1013253           0.0834032
 General basis read from cards:  (5D, 7F)
 ======================================================================================================
                                       Pseudopotential Parameters
 ======================================================================================================
  Center     Atomic      Valence      Angular      Power
  Number     Number     Electrons     Momentum     of R      Exponent        Coefficient   SO-Coeffient
 ======================================================================================================
    1          6
                                   No pseudopotential on this center.
    2          6
                                   No pseudopotential on this center.
    3          6
                                   No pseudopotential on this center.
    4          6
                                   No pseudopotential on this center.
    5          6
                                   No pseudopotential on this center.
    6          6
                                   No pseudopotential on this center.
    7          1
                                   No pseudopotential on this center.
    8          1
                                   No pseudopotential on this center.
    9          1
                                   No pseudopotential on this center.
   10          6
                                   No pseudopotential on this center.
   11          6
                                   No pseudopotential on this center.
   12          6
                                   No pseudopotential on this center.
   13          6
                                   No pseudopotential on this center.
   14          6
                                   No pseudopotential on this center.
   15          6
                                   No pseudopotential on this center.
   16          1
                                   No pseudopotential on this center.
   17          6
                                   No pseudopotential on this center.
   18          1
                                   No pseudopotential on this center.
   19          1
                                   No pseudopotential on this center.
   20          1
                                   No pseudopotential on this center.
   21          6
                                   No pseudopotential on this center.
   22          6
                                   No pseudopotential on this center.
   23          6
                                   No pseudopotential on this center.
   24          6
                                   No pseudopotential on this center.
   25          6
                                   No pseudopotential on this center.
   26          6
                                   No pseudopotential on this center.
   27          1
                                   No pseudopotential on this center.
   28          6
                                   No pseudopotential on this center.
   29          1
                                   No pseudopotential on this center.
   30          1
                                   No pseudopotential on this center.
   31          1
                                   No pseudopotential on this center.
   32          7
                                   No pseudopotential on this center.
   33          7
                                   No pseudopotential on this center.
   34          7
                                   No pseudopotential on this center.
   35          7
                                   No pseudopotential on this center.
   36          6
                                   No pseudopotential on this center.
   37          1
                                   No pseudopotential on this center.
   38          1
                                   No pseudopotential on this center.
   39          1
                                   No pseudopotential on this center.
   40          6
                                   No pseudopotential on this center.
   41          1
                                   No pseudopotential on this center.
   42          1
                                   No pseudopotential on this center.
   43          1
                                   No pseudopotential on this center.
   44         27           17
                                      F and up 
                                                     2        1.0000000        0.00000000    0.00000000
                                      S - F
                                                     2       23.6600000      283.96056600    0.00000000
                                                     2       10.6100000       47.15684600    0.00000000
                                      P - F
                                                     2       25.0400000      182.21223600    0.00000000
                                                     2       10.4400000       35.23335200    0.00000000
                                      D - F
                                                     2       29.5400000      -26.47533300    0.00000000
                                                     2       10.1800000       -1.82578700    0.00000000
 ======================================================================================================
   441 basis functions,   871 primitive gaussians,   473 cartesian basis functions
    98 alpha electrons       96 beta electrons
       nuclear repulsion energy      2496.3915162327 Hartrees.
 NAtoms=   44 NActive=   44 NUniq=   44 SFac= 1.00D+00 NAtFMM=   60 NAOKFM=F Big=F
 Integral buffers will be    131072 words long.
 Raffenetti 2 integral format.
 Two-electron integral symmetry is turned off.
 Nuclear repulsion after empirical dispersion term =     2496.3322842675 Hartrees.
 One-electron integrals computed using PRISM.
   1 Symmetry operations used in ECPInt.
 ECPInt:  NShTT=   11781 NPrTT=   71406 LenC2=    9542 LenP2D=   32117.
 LDataN:  DoStor=T MaxTD1= 6 Len=  172
 NBasis=   441 RedAO= T EigKep=  3.38D-04  NBF=   441
 NBsUse=   441 1.00D-06 EigRej= -1.00D+00 NBFU=   441
 Initial guess from the checkpoint file:  "b.chk"
 B after Tr=     0.000000    0.001701    0.000000
         Rot=    1.000000   -0.000000   -0.000000   -0.000000 Ang=  -0.00 deg.
 Initial guess <Sx>= 0.0000 <Sy>= 0.0000 <Sz>= 1.0000 <S**2>= 2.2362 S= 1.0768
 Requested convergence on RMS density matrix=1.00D-08 within  64 cycles.
 Requested convergence on MAX density matrix=1.00D-06.
 Requested convergence on             energy=1.00D-06.
 No special actions if energy rises.
 EnCoef did     6 forward-backward iterations
 Restarting incremental Fock formation.
 SCF Done:  E(UPBE1PBE) =  -1212.13202011     A.U. after   38 cycles
            NFock= 38  Conv=0.19D-08     -V/T= 2.0552
 <Sx>= 0.0000 <Sy>= 0.0000 <Sz>= 1.0000 <S**2>= 2.1875 S= 1.0613
 <L.S>=  0.00000000000    
 Annihilation of the first spin contaminant:
 S**2 before annihilation     2.1875,   after     2.0043
 QCSCF skips out because SCF is already converged.

 **********************************************************************

            Population analysis using the SCF Density.

 **********************************************************************

 Alpha  occ. eigenvalues --  -14.45198 -14.45197 -14.44762 -14.44761 -10.27738
 Alpha  occ. eigenvalues --  -10.27738 -10.27297 -10.27296 -10.27290 -10.27290
 Alpha  occ. eigenvalues --  -10.27059 -10.27059 -10.26212 -10.26212 -10.23646
 Alpha  occ. eigenvalues --  -10.23646 -10.23491 -10.23491 -10.23008 -10.23008
 Alpha  occ. eigenvalues --  -10.22917 -10.22917 -10.22403 -10.22172 -10.22168
 Alpha  occ. eigenvalues --  -10.20216  -3.93667  -2.46166  -2.43724  -2.42953
 Alpha  occ. eigenvalues --   -1.05921  -1.05830  -0.97038  -0.96611  -0.88029
 Alpha  occ. eigenvalues --   -0.87626  -0.85503  -0.80338  -0.78870  -0.77657
 Alpha  occ. eigenvalues --   -0.77591  -0.75585  -0.74971  -0.73074  -0.72490
 Alpha  occ. eigenvalues --   -0.66746  -0.65307  -0.64369  -0.63977  -0.62804
 Alpha  occ. eigenvalues --   -0.61329  -0.58823  -0.57771  -0.56448  -0.53896
 Alpha  occ. eigenvalues --   -0.53049  -0.52087  -0.49799  -0.49715  -0.49184
 Alpha  occ. eigenvalues --   -0.48270  -0.47932  -0.47195  -0.46828  -0.45890
 Alpha  occ. eigenvalues --   -0.45728  -0.45235  -0.44880  -0.44818  -0.44155
 Alpha  occ. eigenvalues --   -0.42560  -0.42007  -0.41374  -0.38897  -0.38610
 Alpha  occ. eigenvalues --   -0.38575  -0.38059  -0.37267  -0.37234  -0.36853
 Alpha  occ. eigenvalues --   -0.36347  -0.34940  -0.34583  -0.33924  -0.32028
 Alpha  occ. eigenvalues --   -0.31747  -0.30289  -0.28817  -0.27002  -0.26987
 Alpha  occ. eigenvalues --   -0.26590  -0.25987  -0.24568  -0.23935  -0.22877
 Alpha  occ. eigenvalues --   -0.20723  -0.20523  -0.10150
 Alpha virt. eigenvalues --   -0.05972  -0.02556  -0.00111   0.00171   0.00337
 Alpha virt. eigenvalues --    0.02328   0.02896   0.03859   0.04241   0.05592
 Alpha virt. eigenvalues --    0.06311   0.07942   0.07948   0.09813   0.10263
 Alpha virt. eigenvalues --    0.12562   0.12969   0.13872   0.13885   0.15165
 Alpha virt. eigenvalues --    0.15293   0.15377   0.15959   0.16207   0.16527
 Alpha virt. eigenvalues --    0.16968   0.17738   0.17958   0.18128   0.18320
 Alpha virt. eigenvalues --    0.19414   0.19871   0.19921   0.20147   0.21055
 Alpha virt. eigenvalues --    0.21975   0.22751   0.23206   0.24246   0.25926
 Alpha virt. eigenvalues --    0.25943   0.26081   0.26260   0.27627   0.27922
 Alpha virt. eigenvalues --    0.27982   0.28836   0.30236   0.30935   0.31527
 Alpha virt. eigenvalues --    0.32902   0.33345   0.34141   0.34767   0.36562
 Alpha virt. eigenvalues --    0.37544   0.37899   0.39450   0.39682   0.41367
 Alpha virt. eigenvalues --    0.42094   0.44427   0.45103   0.46485   0.46899
 Alpha virt. eigenvalues --    0.47555   0.50323   0.50948   0.51725   0.52239
 Alpha virt. eigenvalues --    0.53893   0.54100   0.56264   0.56353   0.56450
 Alpha virt. eigenvalues --    0.56665   0.57328   0.57961   0.58540   0.58730
 Alpha virt. eigenvalues --    0.58790   0.59701   0.60478   0.61536   0.61560
 Alpha virt. eigenvalues --    0.61604   0.63037   0.63090   0.63376   0.63550
 Alpha virt. eigenvalues --    0.63708   0.63789   0.63995   0.64187   0.64844
 Alpha virt. eigenvalues --    0.65144   0.66133   0.66184   0.66950   0.67385
 Alpha virt. eigenvalues --    0.67421   0.68138   0.68593   0.71039   0.71985
 Alpha virt. eigenvalues --    0.72006   0.73766   0.75660   0.75860   0.76709
 Alpha virt. eigenvalues --    0.77143   0.78146   0.80003   0.80143   0.81310
 Alpha virt. eigenvalues --    0.81632   0.82411   0.83718   0.83802   0.83834
 Alpha virt. eigenvalues --    0.84603   0.85135   0.85869   0.86859   0.87198
 Alpha virt. eigenvalues --    0.87557   0.87952   0.89823   0.90443   0.90762
 Alpha virt. eigenvalues --    0.91190   0.91619   0.91741   0.92977   0.93477
 Alpha virt. eigenvalues --    0.93821   0.94012   0.95303   0.95575   0.96071
 Alpha virt. eigenvalues --    0.97311   0.97814   0.98004   0.98300   0.98528
 Alpha virt. eigenvalues --    1.00260   1.00336   1.01594   1.02067   1.02777
 Alpha virt. eigenvalues --    1.03867   1.04091   1.06234   1.07211   1.07466
 Alpha virt. eigenvalues --    1.08876   1.09006   1.09770   1.10890   1.14036
 Alpha virt. eigenvalues --    1.15236   1.16351   1.16687   1.18304   1.18723
 Alpha virt. eigenvalues --    1.19212   1.20488   1.23825   1.24067   1.24758
 Alpha virt. eigenvalues --    1.24844   1.26425   1.27025   1.27733   1.29059
 Alpha virt. eigenvalues --    1.29878   1.29957   1.31170   1.33410   1.33762
 Alpha virt. eigenvalues --    1.36146   1.36351   1.36521   1.38424   1.38887
 Alpha virt. eigenvalues --    1.40606   1.41117   1.42520   1.42520   1.45031
 Alpha virt. eigenvalues --    1.45337   1.45716   1.46582   1.47603   1.48350
 Alpha virt. eigenvalues --    1.49427   1.49736   1.50077   1.50358   1.50372
 Alpha virt. eigenvalues --    1.51376   1.52587   1.54688   1.57673   1.57722
 Alpha virt. eigenvalues --    1.59713   1.60735   1.64262   1.65185   1.66192
 Alpha virt. eigenvalues --    1.70689   1.71577   1.73440   1.75283   1.77452
 Alpha virt. eigenvalues --    1.78889   1.80029   1.80373   1.82832   1.82880
 Alpha virt. eigenvalues --    1.85101   1.86992   1.87312   1.87404   1.87573
 Alpha virt. eigenvalues --    1.88790   1.90133   1.91437   1.92505   1.93906
 Alpha virt. eigenvalues --    1.95427   1.95569   1.96767   1.97411   1.97758
 Alpha virt. eigenvalues --    1.98146   1.98986   1.99212   1.99732   1.99947
 Alpha virt. eigenvalues --    2.00889   2.01958   2.02435   2.03075   2.05624
 Alpha virt. eigenvalues --    2.07315   2.07448   2.09813   2.11576   2.13024
 Alpha virt. eigenvalues --    2.13252   2.14516   2.15711   2.15921   2.16333
 Alpha virt. eigenvalues --    2.17066   2.17278   2.19163   2.19479   2.20764
 Alpha virt. eigenvalues --    2.20809   2.21497   2.22462   2.24224   2.24312
 Alpha virt. eigenvalues --    2.24486   2.26646   2.27268   2.27593   2.27873
 Alpha virt. eigenvalues --    2.27907   2.28271   2.28364   2.28975   2.32969
 Alpha virt. eigenvalues --    2.35290   2.37237   2.40268   2.40632   2.40710
 Alpha virt. eigenvalues --    2.42106   2.43401   2.45647   2.46980   2.47115
 Alpha virt. eigenvalues --    2.51737   2.52378   2.57150   2.58528   2.59019
 Alpha virt. eigenvalues --    2.59241   2.59426   2.60910   2.63004   2.63808
 Alpha virt. eigenvalues --    2.65222   2.66834   2.67904   2.69240   2.70409
 Alpha virt. eigenvalues --    2.70987   2.72333   2.74470   2.75733   2.76068
 Alpha virt. eigenvalues --    2.76435   2.76784   2.78609   2.79750   2.82990
 Alpha virt. eigenvalues --    2.83678   2.86959   2.87746   2.88248   2.92499
 Alpha virt. eigenvalues --    2.93247   2.96941   2.97484   2.98635   3.01408
 Alpha virt. eigenvalues --    3.06250   3.07520   3.16366   3.19506   3.19655
 Alpha virt. eigenvalues --    3.28330   3.40693   3.44357   3.47604   3.51349
 Alpha virt. eigenvalues --    3.52316   3.58175   5.55186   5.56326   5.57450
 Alpha virt. eigenvalues --    5.60095   5.61105   5.61633   5.63658  45.69835
 Alpha virt. eigenvalues --   45.89442  45.94225  63.00943
  Beta  occ. eigenvalues --  -14.45060 -14.45060 -14.44733 -14.44733 -10.27508
  Beta  occ. eigenvalues --  -10.27507 -10.27306 -10.27305 -10.27293 -10.27293
  Beta  occ. eigenvalues --  -10.27095 -10.27095 -10.26075 -10.26075 -10.23587
  Beta  occ. eigenvalues --  -10.23587 -10.23468 -10.23468 -10.23013 -10.23013
  Beta  occ. eigenvalues --  -10.22885 -10.22885 -10.22296 -10.22272 -10.22225
  Beta  occ. eigenvalues --  -10.20582  -3.86823  -2.38362  -2.37755  -2.34665
  Beta  occ. eigenvalues --   -1.05706  -1.05613  -0.96834  -0.96389  -0.87983
  Beta  occ. eigenvalues --   -0.87551  -0.85499  -0.80248  -0.78824  -0.77597
  Beta  occ. eigenvalues --   -0.77518  -0.75429  -0.74765  -0.73075  -0.72570
  Beta  occ. eigenvalues --   -0.66772  -0.65078  -0.64120  -0.63967  -0.62747
  Beta  occ. eigenvalues --   -0.61227  -0.58790  -0.57750  -0.56417  -0.53849
  Beta  occ. eigenvalues --   -0.53016  -0.52026  -0.49324  -0.49257  -0.49159
  Beta  occ. eigenvalues --   -0.48292  -0.47913  -0.47169  -0.46747  -0.45851
  Beta  occ. eigenvalues --   -0.45719  -0.45189  -0.44805  -0.44485  -0.43833
  Beta  occ. eigenvalues --   -0.42571  -0.41978  -0.41373  -0.38674  -0.38579
  Beta  occ. eigenvalues --   -0.38516  -0.37330  -0.37247  -0.36645  -0.36428
  Beta  occ. eigenvalues --   -0.36215  -0.34966  -0.34017  -0.33258  -0.31485
  Beta  occ. eigenvalues --   -0.29665  -0.29394  -0.26386  -0.25936  -0.25109
  Beta  occ. eigenvalues --   -0.24369  -0.23848  -0.21972  -0.20665  -0.20298
  Beta  occ. eigenvalues --   -0.19873
  Beta virt. eigenvalues --   -0.04654  -0.04216  -0.01099  -0.00486   0.00052
  Beta virt. eigenvalues --    0.01250   0.01682   0.02483   0.03691   0.05561
  Beta virt. eigenvalues --    0.05947   0.05967   0.07989   0.09091   0.09304
  Beta virt. eigenvalues --    0.10290   0.10724   0.12659   0.13062   0.13997
  Beta virt. eigenvalues --    0.14162   0.15427   0.15572   0.16011   0.16055
  Beta virt. eigenvalues --    0.16672   0.16925   0.17022   0.17820   0.18085
  Beta virt. eigenvalues --    0.18667   0.18980   0.19562   0.19996   0.20411
  Beta virt. eigenvalues --    0.21475   0.22129   0.22937   0.23070   0.23267
  Beta virt. eigenvalues --    0.24312   0.25999   0.26071   0.26262   0.27467
  Beta virt. eigenvalues --    0.27668   0.28063   0.29281   0.29301   0.30601
  Beta virt. eigenvalues --    0.31252   0.31714   0.33032   0.33511   0.34489
  Beta virt. eigenvalues --    0.34820   0.36713   0.37758   0.38189   0.39651
  Beta virt. eigenvalues --    0.39759   0.41365   0.42597   0.44644   0.45520
  Beta virt. eigenvalues --    0.46805   0.47328   0.47878   0.50645   0.51085
  Beta virt. eigenvalues --    0.51774   0.52378   0.53990   0.54234   0.56307
  Beta virt. eigenvalues --    0.56396   0.56688   0.56761   0.57399   0.58141
  Beta virt. eigenvalues --    0.58678   0.58833   0.59014   0.59762   0.60552
  Beta virt. eigenvalues --    0.61530   0.61751   0.61807   0.63082   0.63248
  Beta virt. eigenvalues --    0.63415   0.63722   0.63751   0.63779   0.64040
  Beta virt. eigenvalues --    0.64227   0.64765   0.65124   0.66222   0.66351
  Beta virt. eigenvalues --    0.67414   0.67539   0.67750   0.68195   0.68804
  Beta virt. eigenvalues --    0.71037   0.72134   0.72331   0.74140   0.75730
  Beta virt. eigenvalues --    0.76098   0.76813   0.77331   0.78670   0.80295
  Beta virt. eigenvalues --    0.80518   0.81499   0.81865   0.82605   0.83832
  Beta virt. eigenvalues --    0.83998   0.84233   0.84663   0.85395   0.86055
  Beta virt. eigenvalues --    0.87214   0.87307   0.87572   0.87973   0.89860
  Beta virt. eigenvalues --    0.90727   0.90818   0.91354   0.91751   0.91873
  Beta virt. eigenvalues --    0.93026   0.93497   0.94071   0.94699   0.95636
  Beta virt. eigenvalues --    0.96434   0.96592   0.97326   0.97853   0.98364
  Beta virt. eigenvalues --    0.98412   0.98546   1.00346   1.00374   1.01700
  Beta virt. eigenvalues --    1.02128   1.02825   1.03958   1.04142   1.06320
  Beta virt. eigenvalues --    1.07278   1.08817   1.09103   1.09785   1.11195
  Beta virt. eigenvalues --    1.14129   1.15342   1.15363   1.16403   1.16714
  Beta virt. eigenvalues --    1.18358   1.18758   1.19252   1.20602   1.23974
  Beta virt. eigenvalues --    1.24287   1.24802   1.24900   1.26615   1.27234
  Beta virt. eigenvalues --    1.28182   1.29283   1.30119   1.30151   1.31269
  Beta virt. eigenvalues --    1.33786   1.34065   1.36419   1.36636   1.36813
  Beta virt. eigenvalues --    1.38976   1.39063   1.40740   1.41378   1.42629
  Beta virt. eigenvalues --    1.43013   1.45096   1.45437   1.45863   1.46743
  Beta virt. eigenvalues --    1.47716   1.48450   1.49616   1.49771   1.50314
  Beta virt. eigenvalues --    1.50482   1.50519   1.51663   1.53020   1.55900
  Beta virt. eigenvalues --    1.57718   1.58040   1.60554   1.60863   1.64892
  Beta virt. eigenvalues --    1.65678   1.66468   1.70799   1.72062   1.73608
  Beta virt. eigenvalues --    1.75414   1.77479   1.79221   1.80242   1.80517
  Beta virt. eigenvalues --    1.82911   1.83002   1.85190   1.87110   1.87314
  Beta virt. eigenvalues --    1.87530   1.87659   1.88925   1.90345   1.91501
  Beta virt. eigenvalues --    1.92576   1.93952   1.95477   1.95614   1.96869
  Beta virt. eigenvalues --    1.97513   1.97891   1.98294   1.99041   1.99427
  Beta virt. eigenvalues --    1.99785   2.00188   2.00927   2.02011   2.02494
  Beta virt. eigenvalues --    2.03212   2.05823   2.07423   2.07544   2.09988
  Beta virt. eigenvalues --    2.11900   2.13203   2.13364   2.14828   2.15749
  Beta virt. eigenvalues --    2.16022   2.16417   2.17143   2.17412   2.19275
  Beta virt. eigenvalues --    2.19803   2.20869   2.20924   2.21592   2.22653
  Beta virt. eigenvalues --    2.24481   2.24639   2.24795   2.26884   2.27471
  Beta virt. eigenvalues --    2.27698   2.28006   2.28097   2.28421   2.28435
  Beta virt. eigenvalues --    2.29175   2.33059   2.35784   2.37457   2.40349
  Beta virt. eigenvalues --    2.40793   2.40961   2.43833   2.44888   2.47028
  Beta virt. eigenvalues --    2.47622   2.48548   2.51830   2.52494   2.57390
  Beta virt. eigenvalues --    2.58838   2.59104   2.59306   2.59801   2.60979
  Beta virt. eigenvalues --    2.63129   2.64047   2.65510   2.66951   2.68071
  Beta virt. eigenvalues --    2.69367   2.70667   2.71165   2.72533   2.74605
  Beta virt. eigenvalues --    2.75889   2.76218   2.76534   2.77072   2.78942
  Beta virt. eigenvalues --    2.79744   2.83082   2.85840   2.87473   2.87767
  Beta virt. eigenvalues --    2.88388   2.92954   2.93717   2.97144   2.97612
  Beta virt. eigenvalues --    2.99040   3.01997   3.06429   3.07846   3.16398
  Beta virt. eigenvalues --    3.19777   3.20002   3.28230   3.41009   3.45042
  Beta virt. eigenvalues --    3.47626   3.51304   3.52718   3.60441   5.61158
  Beta virt. eigenvalues --    5.63022   5.63112   5.63827   5.64655   5.67345
  Beta virt. eigenvalues --    5.69040  45.80097  45.97574  46.00361  63.06931
          Condensed to atoms (all electrons):
               1          2          3          4          5          6
     1  C    5.227225   0.494004  -0.069648  -0.049331  -0.069648   0.494003
     2  C    0.494004   4.597158   0.536434  -0.005366  -0.039342  -0.015561
     3  C   -0.069648   0.536434   5.035005   0.521685  -0.038356  -0.039342
     4  C   -0.049331  -0.005366   0.521685   4.911918   0.521685  -0.005366
     5  C   -0.069648  -0.039342  -0.038356   0.521685   5.035004   0.536434
     6  C    0.494003  -0.015561  -0.039342  -0.005366   0.536434   4.597162
     7  H    0.005274  -0.038096   0.349084  -0.039368   0.004062   0.000555
     8  H    0.001286   0.002390  -0.035274   0.366008  -0.035274   0.002390
     9  H    0.005274   0.000555   0.004062  -0.039368   0.349084  -0.038096
    10  C    0.007303  -0.000011   0.000001   0.000128  -0.006135  -0.045880
    11  C    0.013762   0.002820  -0.000087   0.000046   0.002930  -0.069932
    12  C   -0.000824   0.000000  -0.000000   0.000000   0.000131   0.007734
    13  C    0.000170   0.000002  -0.000002   0.000066   0.001865  -0.004947
    14  C    0.000000  -0.000000   0.000000  -0.000000   0.000002  -0.000031
    15  C    0.000002  -0.000000   0.000000  -0.000001   0.000078   0.000074
    16  H   -0.000034   0.000001   0.000001   0.000118   0.000009   0.000669
    17  C    0.000000   0.000000  -0.000000   0.000000  -0.000001  -0.000003
    18  H   -0.000000   0.000000   0.000000   0.000000  -0.000000   0.000003
    19  H   -0.000000   0.000000  -0.000000   0.000000   0.000002  -0.000003
    20  H   -0.000000  -0.000000   0.000000  -0.000000  -0.000000  -0.000000
    21  C    0.007303  -0.045880  -0.006135   0.000128   0.000001  -0.000011
    22  C    0.013761  -0.069932   0.002930   0.000046  -0.000087   0.002820
    23  C   -0.000824   0.007734   0.000131   0.000000  -0.000000   0.000000
    24  C    0.000170  -0.004947   0.001865   0.000066  -0.000002   0.000002
    25  C    0.000000  -0.000031   0.000002  -0.000000   0.000000  -0.000000
    26  C    0.000002   0.000074   0.000078  -0.000001   0.000000  -0.000000
    27  H   -0.000034   0.000669   0.000009   0.000118   0.000001   0.000001
    28  C    0.000000  -0.000003  -0.000001   0.000000  -0.000000   0.000000
    29  H   -0.000000   0.000003  -0.000000   0.000000   0.000000   0.000000
    30  H   -0.000000  -0.000003   0.000002   0.000000  -0.000000   0.000000
    31  H   -0.000000  -0.000000  -0.000000  -0.000000   0.000000  -0.000000
    32  N   -0.035393   0.266393  -0.068024   0.004374   0.000485   0.006567
    33  N    0.001336   0.006328  -0.000165   0.000001   0.000000  -0.000042
    34  N   -0.035393   0.006567   0.000485   0.004374  -0.068023   0.266393
    35  N    0.001336  -0.000042   0.000000   0.000001  -0.000165   0.006328
    36  C   -0.000014   0.000000  -0.000000  -0.000000   0.000002  -0.000059
    37  H   -0.000000  -0.000000   0.000000   0.000000  -0.000000   0.000004
    38  H   -0.000000  -0.000000   0.000000   0.000000  -0.000000   0.000004
    39  H   -0.000022   0.000001   0.000000  -0.000000   0.000000  -0.000013
    40  C   -0.000014  -0.000059   0.000002  -0.000000  -0.000000   0.000000
    41  H   -0.000000   0.000004  -0.000000   0.000000   0.000000  -0.000000
    42  H   -0.000000   0.000004  -0.000000   0.000000   0.000000  -0.000000
    43  H   -0.000022  -0.000013   0.000000  -0.000000   0.000000   0.000001
    44  Co   0.271272  -0.068124   0.003397   0.003111   0.003397  -0.068125
               7          8          9         10         11         12
     1  C    0.005274   0.001286   0.005274   0.007303   0.013762  -0.000824
     2  C   -0.038096   0.002390   0.000555  -0.000011   0.002820   0.000000
     3  C    0.349084  -0.035274   0.004062   0.000001  -0.000087  -0.000000
     4  C   -0.039368   0.366008  -0.039368   0.000128   0.000046   0.000000
     5  C    0.004062  -0.035274   0.349084  -0.006135   0.002930   0.000131
     6  C    0.000555   0.002390  -0.038096  -0.045880  -0.069932   0.007734
     7  H    0.551266  -0.004265  -0.000110  -0.000000  -0.000000   0.000000
     8  H   -0.004265   0.542716  -0.004265  -0.000002   0.000001  -0.000000
     9  H   -0.000110  -0.004265   0.551267   0.000371  -0.000158  -0.000035
    10  C   -0.000000  -0.000002   0.000371   4.639387  -0.070845   0.514683
    11  C   -0.000000   0.000001  -0.000158  -0.070845   4.825823  -0.056932
    12  C    0.000000  -0.000000  -0.000035   0.514683  -0.056932   4.651732
    13  C   -0.000000   0.000003   0.000068   0.539154   0.004857  -0.056505
    14  C   -0.000000   0.000000   0.000000  -0.048726   0.005761   0.533909
    15  C   -0.000000   0.000000   0.000123  -0.006264  -0.000076  -0.038023
    16  H   -0.000000  -0.000011   0.006232  -0.034488  -0.000156   0.003728
    17  C    0.000000  -0.000000   0.000001  -0.039653  -0.000081  -0.007955
    18  H    0.000000  -0.000000  -0.000000   0.003923  -0.000214  -0.038265
    19  H    0.000000   0.000000  -0.000009   0.001975   0.000003   0.000942
    20  H   -0.000000  -0.000000   0.000000   0.000915   0.000003   0.002296
    21  C    0.000371  -0.000002  -0.000000  -0.000000  -0.000008   0.000000
    22  C   -0.000158   0.000001  -0.000000  -0.000008  -0.015987  -0.000002
    23  C   -0.000035  -0.000000   0.000000   0.000000  -0.000002  -0.000000
    24  C    0.000068   0.000003  -0.000000   0.000000   0.000000  -0.000000
    25  C    0.000000   0.000000  -0.000000  -0.000000   0.000000   0.000000
    26  C    0.000123   0.000000  -0.000000  -0.000000  -0.000000   0.000000
    27  H    0.006232  -0.000011  -0.000000   0.000000   0.000000  -0.000000
    28  C    0.000001  -0.000000   0.000000   0.000000  -0.000000  -0.000000
    29  H   -0.000000  -0.000000   0.000000   0.000000   0.000000  -0.000000
    30  H   -0.000009   0.000000   0.000000   0.000000   0.000000   0.000000
    31  H    0.000000  -0.000000  -0.000000   0.000000   0.000000   0.000000
    32  N   -0.004448  -0.000103   0.000006   0.000000   0.000321   0.000000
    33  N    0.000002  -0.000000  -0.000000  -0.000000   0.000023   0.000000
    34  N    0.000006  -0.000103  -0.004448   0.261243   0.347752  -0.039482
    35  N   -0.000000  -0.000000   0.000002  -0.044870   0.312129   0.274533
    36  C   -0.000000   0.000000  -0.000000   0.005833  -0.042967  -0.048034
    37  H    0.000000  -0.000000  -0.000000  -0.000142   0.000699  -0.001282
    38  H    0.000000  -0.000000  -0.000000  -0.000142   0.000695  -0.001279
    39  H    0.000000   0.000000   0.000000   0.000018  -0.000404   0.002613
    40  C   -0.000000   0.000000  -0.000000   0.000000   0.000017   0.000000
    41  H   -0.000000  -0.000000   0.000000  -0.000000  -0.000000  -0.000000
    42  H   -0.000000  -0.000000   0.000000  -0.000000  -0.000000  -0.000000
    43  H    0.000000   0.000000   0.000000   0.000000  -0.000001  -0.000000
    44  Co  -0.000554   0.000158  -0.000554   0.007972   0.372948   0.004712
              13         14         15         16         17         18
     1  C    0.000170   0.000000   0.000002  -0.000034   0.000000  -0.000000
     2  C    0.000002  -0.000000  -0.000000   0.000001   0.000000   0.000000
     3  C   -0.000002   0.000000   0.000000   0.000001  -0.000000   0.000000
     4  C    0.000066  -0.000000  -0.000001   0.000118   0.000000   0.000000
     5  C    0.001865   0.000002   0.000078   0.000009  -0.000001  -0.000000
     6  C   -0.004947  -0.000031   0.000074   0.000669  -0.000003   0.000003
     7  H   -0.000000  -0.000000  -0.000000  -0.000000   0.000000   0.000000
     8  H    0.000003   0.000000   0.000000  -0.000011  -0.000000  -0.000000
     9  H    0.000068   0.000000   0.000123   0.006232   0.000001  -0.000000
    10  C    0.539154  -0.048726  -0.006264  -0.034488  -0.039653   0.003923
    11  C    0.004857   0.005761  -0.000076  -0.000156  -0.000081  -0.000214
    12  C   -0.056505   0.533909  -0.038023   0.003728  -0.007955  -0.038265
    13  C    5.026796  -0.044245   0.508667   0.355719  -0.036153   0.000280
    14  C   -0.044245   5.035291  -0.038324   0.000453   0.515793   0.362409
    15  C    0.508667  -0.038324   4.898942  -0.035926   0.558760   0.003901
    16  H    0.355719   0.000453  -0.035926   0.518518   0.003717   0.000014
    17  C   -0.036153   0.515793   0.558760   0.003717   4.888275  -0.035602
    18  H    0.000280   0.362409   0.003901   0.000014  -0.035602   0.536822
    19  H   -0.036148   0.003999   0.368793  -0.004062  -0.036056  -0.000147
    20  H    0.004018  -0.037190  -0.036243  -0.000149   0.368271  -0.004228
    21  C    0.000000  -0.000000  -0.000000   0.000000   0.000000   0.000000
    22  C    0.000000   0.000000  -0.000000   0.000000  -0.000000   0.000000
    23  C   -0.000000   0.000000   0.000000  -0.000000  -0.000000  -0.000000
    24  C    0.000000   0.000000  -0.000000   0.000000   0.000000   0.000000
    25  C    0.000000  -0.000000   0.000000  -0.000000  -0.000000   0.000000
    26  C   -0.000000   0.000000  -0.000000  -0.000000   0.000000   0.000000
    27  H    0.000000  -0.000000  -0.000000   0.000000   0.000000  -0.000000
    28  C    0.000000  -0.000000   0.000000   0.000000   0.000000   0.000000
    29  H    0.000000   0.000000   0.000000  -0.000000   0.000000  -0.000000
    30  H   -0.000000  -0.000000   0.000000  -0.000000   0.000000   0.000000
    31  H   -0.000000   0.000000   0.000000  -0.000000   0.000000   0.000000
    32  N   -0.000000   0.000000   0.000000   0.000000   0.000000  -0.000000
    33  N    0.000000  -0.000000   0.000000   0.000000   0.000000  -0.000000
    34  N   -0.077939   0.009069   0.005193  -0.004960  -0.000180  -0.000092
    35  N    0.009370  -0.084481  -0.000138  -0.000097   0.005430  -0.007256
    36  C   -0.000117  -0.003019   0.000009   0.000003  -0.000115   0.004174
    37  H   -0.000009   0.002792  -0.000002  -0.000000  -0.000007   0.000530
    38  H   -0.000009   0.002789  -0.000002  -0.000000  -0.000007   0.000529
    39  H    0.000006   0.000024  -0.000000  -0.000000   0.000001  -0.000033
    40  C    0.000000   0.000000  -0.000000   0.000000   0.000000  -0.000000
    41  H    0.000000   0.000000  -0.000000   0.000000  -0.000000  -0.000000
    42  H    0.000000   0.000000  -0.000000   0.000000  -0.000000  -0.000000
    43  H    0.000000   0.000000  -0.000000   0.000000  -0.000000   0.000000
    44  Co  -0.000518  -0.000474  -0.000011   0.000058   0.000005   0.000019
              19         20         21         22         23         24
     1  C   -0.000000  -0.000000   0.007303   0.013761  -0.000824   0.000170
     2  C    0.000000  -0.000000  -0.045880  -0.069932   0.007734  -0.004947
     3  C   -0.000000   0.000000  -0.006135   0.002930   0.000131   0.001865
     4  C    0.000000  -0.000000   0.000128   0.000046   0.000000   0.000066
     5  C    0.000002  -0.000000   0.000001  -0.000087  -0.000000  -0.000002
     6  C   -0.000003  -0.000000  -0.000011   0.002820   0.000000   0.000002
     7  H    0.000000  -0.000000   0.000371  -0.000158  -0.000035   0.000068
     8  H    0.000000  -0.000000  -0.000002   0.000001  -0.000000   0.000003
     9  H   -0.000009   0.000000  -0.000000  -0.000000   0.000000  -0.000000
    10  C    0.001975   0.000915  -0.000000  -0.000008   0.000000   0.000000
    11  C    0.000003   0.000003  -0.000008  -0.015987  -0.000002   0.000000
    12  C    0.000942   0.002296   0.000000  -0.000002  -0.000000  -0.000000
    13  C   -0.036148   0.004018   0.000000   0.000000  -0.000000   0.000000
    14  C    0.003999  -0.037190  -0.000000   0.000000   0.000000   0.000000
    15  C    0.368793  -0.036243  -0.000000  -0.000000   0.000000  -0.000000
    16  H   -0.004062  -0.000149   0.000000   0.000000  -0.000000   0.000000
    17  C   -0.036056   0.368271   0.000000  -0.000000  -0.000000   0.000000
    18  H   -0.000147  -0.004228   0.000000   0.000000  -0.000000   0.000000
    19  H    0.535240  -0.004632   0.000000   0.000000   0.000000  -0.000000
    20  H   -0.004632   0.538524   0.000000   0.000000   0.000000  -0.000000
    21  C    0.000000   0.000000   4.639379  -0.070843   0.514682   0.539156
    22  C    0.000000   0.000000  -0.070843   4.825824  -0.056932   0.004857
    23  C    0.000000   0.000000   0.514682  -0.056932   4.651737  -0.056505
    24  C   -0.000000  -0.000000   0.539156   0.004857  -0.056505   5.026803
    25  C   -0.000000   0.000000  -0.048725   0.005760   0.533908  -0.044246
    26  C    0.000000   0.000000  -0.006264  -0.000076  -0.038023   0.508664
    27  H   -0.000000  -0.000000  -0.034488  -0.000156   0.003728   0.355718
    28  C    0.000000   0.000000  -0.039653  -0.000081  -0.007955  -0.036153
    29  H    0.000000   0.000000   0.003923  -0.000214  -0.038265   0.000280
    30  H    0.000000   0.000000   0.001975   0.000003   0.000942  -0.036148
    31  H    0.000000   0.000000   0.000915   0.000003   0.002296   0.004018
    32  N   -0.000000   0.000000   0.261241   0.347751  -0.039482  -0.077941
    33  N   -0.000000  -0.000000  -0.044870   0.312126   0.274534   0.009370
    34  N   -0.000092   0.000004   0.000000   0.000321   0.000000  -0.000000
    35  N    0.000004  -0.000100  -0.000000   0.000023   0.000000   0.000000
    36  C   -0.000000  -0.000002   0.000000   0.000017   0.000000   0.000000
    37  H   -0.000000  -0.000000  -0.000000  -0.000000  -0.000000   0.000000
    38  H   -0.000000  -0.000000  -0.000000  -0.000000  -0.000000   0.000000
    39  H   -0.000000  -0.000000   0.000000  -0.000001  -0.000000   0.000000
    40  C    0.000000  -0.000000   0.005833  -0.042967  -0.048034  -0.000117
    41  H   -0.000000   0.000000  -0.000142   0.000695  -0.001279  -0.000009
    42  H   -0.000000   0.000000  -0.000142   0.000699  -0.001283  -0.000009
    43  H    0.000000   0.000000   0.000018  -0.000404   0.002613   0.000006
    44  Co   0.000016  -0.000004   0.007971   0.372950   0.004712  -0.000518
              25         26         27         28         29         30
     1  C    0.000000   0.000002  -0.000034   0.000000  -0.000000  -0.000000
     2  C   -0.000031   0.000074   0.000669  -0.000003   0.000003  -0.000003
     3  C    0.000002   0.000078   0.000009  -0.000001  -0.000000   0.000002
     4  C   -0.000000  -0.000001   0.000118   0.000000   0.000000   0.000000
     5  C    0.000000   0.000000   0.000001  -0.000000   0.000000  -0.000000
     6  C   -0.000000  -0.000000   0.000001   0.000000   0.000000   0.000000
     7  H    0.000000   0.000123   0.006232   0.000001  -0.000000  -0.000009
     8  H    0.000000   0.000000  -0.000011  -0.000000  -0.000000   0.000000
     9  H   -0.000000  -0.000000  -0.000000   0.000000   0.000000   0.000000
    10  C   -0.000000  -0.000000   0.000000   0.000000   0.000000   0.000000
    11  C    0.000000  -0.000000   0.000000  -0.000000   0.000000   0.000000
    12  C    0.000000   0.000000  -0.000000  -0.000000  -0.000000   0.000000
    13  C    0.000000  -0.000000   0.000000   0.000000   0.000000  -0.000000
    14  C   -0.000000   0.000000  -0.000000  -0.000000   0.000000  -0.000000
    15  C    0.000000  -0.000000  -0.000000   0.000000   0.000000   0.000000
    16  H   -0.000000  -0.000000   0.000000   0.000000  -0.000000  -0.000000
    17  C   -0.000000   0.000000   0.000000   0.000000   0.000000   0.000000
    18  H    0.000000   0.000000  -0.000000   0.000000  -0.000000   0.000000
    19  H   -0.000000   0.000000  -0.000000   0.000000   0.000000   0.000000
    20  H    0.000000   0.000000  -0.000000   0.000000   0.000000   0.000000
    21  C   -0.048725  -0.006264  -0.034488  -0.039653   0.003923   0.001975
    22  C    0.005760  -0.000076  -0.000156  -0.000081  -0.000214   0.000003
    23  C    0.533908  -0.038023   0.003728  -0.007955  -0.038265   0.000942
    24  C   -0.044246   0.508664   0.355718  -0.036153   0.000280  -0.036148
    25  C    5.035290  -0.038324   0.000453   0.515794   0.362409   0.003999
    26  C   -0.038324   4.898944  -0.035925   0.558761   0.003901   0.368793
    27  H    0.000453  -0.035925   0.518519   0.003717   0.000014  -0.004062
    28  C    0.515794   0.558761   0.003717   4.888273  -0.035602  -0.036055
    29  H    0.362409   0.003901   0.000014  -0.035602   0.536823  -0.000147
    30  H    0.003999   0.368793  -0.004062  -0.036055  -0.000147   0.535240
    31  H   -0.037190  -0.036243  -0.000149   0.368270  -0.004228  -0.004632
    32  N    0.009069   0.005193  -0.004960  -0.000180  -0.000092  -0.000092
    33  N   -0.084481  -0.000138  -0.000097   0.005430  -0.007256   0.000004
    34  N    0.000000   0.000000   0.000000   0.000000  -0.000000  -0.000000
    35  N   -0.000000   0.000000   0.000000   0.000000  -0.000000  -0.000000
    36  C    0.000000  -0.000000   0.000000   0.000000  -0.000000   0.000000
    37  H    0.000000  -0.000000   0.000000  -0.000000  -0.000000  -0.000000
    38  H    0.000000  -0.000000   0.000000  -0.000000  -0.000000  -0.000000
    39  H    0.000000  -0.000000   0.000000  -0.000000   0.000000   0.000000
    40  C   -0.003019   0.000009   0.000003  -0.000115   0.004174  -0.000000
    41  H    0.002789  -0.000002  -0.000000  -0.000007   0.000529  -0.000000
    42  H    0.002792  -0.000002  -0.000000  -0.000007   0.000530  -0.000000
    43  H    0.000024  -0.000000  -0.000000   0.000001  -0.000033  -0.000000
    44  Co  -0.000474  -0.000011   0.000058   0.000005   0.000019   0.000016
              31         32         33         34         35         36
     1  C   -0.000000  -0.035393   0.001336  -0.035393   0.001336  -0.000014
     2  C   -0.000000   0.266393   0.006328   0.006567  -0.000042   0.000000
     3  C   -0.000000  -0.068024  -0.000165   0.000485   0.000000  -0.000000
     4  C   -0.000000   0.004374   0.000001   0.004374   0.000001  -0.000000
     5  C    0.000000   0.000485   0.000000  -0.068023  -0.000165   0.000002
     6  C   -0.000000   0.006567  -0.000042   0.266393   0.006328  -0.000059
     7  H    0.000000  -0.004448   0.000002   0.000006  -0.000000  -0.000000
     8  H   -0.000000  -0.000103  -0.000000  -0.000103  -0.000000   0.000000
     9  H   -0.000000   0.000006  -0.000000  -0.004448   0.000002  -0.000000
    10  C    0.000000   0.000000  -0.000000   0.261243  -0.044870   0.005833
    11  C    0.000000   0.000321   0.000023   0.347752   0.312129  -0.042967
    12  C    0.000000   0.000000   0.000000  -0.039482   0.274533  -0.048034
    13  C   -0.000000  -0.000000   0.000000  -0.077939   0.009370  -0.000117
    14  C    0.000000   0.000000  -0.000000   0.009069  -0.084481  -0.003019
    15  C    0.000000   0.000000   0.000000   0.005193  -0.000138   0.000009
    16  H   -0.000000   0.000000   0.000000  -0.004960  -0.000097   0.000003
    17  C    0.000000   0.000000   0.000000  -0.000180   0.005430  -0.000115
    18  H    0.000000  -0.000000  -0.000000  -0.000092  -0.007256   0.004174
    19  H    0.000000  -0.000000  -0.000000  -0.000092   0.000004  -0.000000
    20  H    0.000000   0.000000  -0.000000   0.000004  -0.000100  -0.000002
    21  C    0.000915   0.261241  -0.044870   0.000000  -0.000000   0.000000
    22  C    0.000003   0.347751   0.312126   0.000321   0.000023   0.000017
    23  C    0.002296  -0.039482   0.274534   0.000000   0.000000   0.000000
    24  C    0.004018  -0.077941   0.009370  -0.000000   0.000000   0.000000
    25  C   -0.037190   0.009069  -0.084481   0.000000  -0.000000   0.000000
    26  C   -0.036243   0.005193  -0.000138   0.000000   0.000000  -0.000000
    27  H   -0.000149  -0.004960  -0.000097   0.000000   0.000000   0.000000
    28  C    0.368270  -0.000180   0.005430   0.000000   0.000000   0.000000
    29  H   -0.004228  -0.000092  -0.007256  -0.000000  -0.000000  -0.000000
    30  H   -0.004632  -0.000092   0.000004  -0.000000  -0.000000   0.000000
    31  H    0.538525   0.000004  -0.000100   0.000000  -0.000000  -0.000000
    32  N    0.000004   7.186741  -0.058647  -0.000136   0.000001  -0.000000
    33  N   -0.000100  -0.058647   7.053312   0.000001  -0.000000  -0.000000
    34  N    0.000000  -0.000136   0.000001   7.186733  -0.058648   0.004696
    35  N   -0.000000   0.000001  -0.000000  -0.058648   7.053315   0.299481
    36  C   -0.000000  -0.000000  -0.000000   0.004696   0.299481   5.050150
    37  H    0.000000   0.000000  -0.000000  -0.000068  -0.042443   0.377847
    38  H    0.000000   0.000000  -0.000000  -0.000068  -0.042448   0.377853
    39  H    0.000000  -0.000000   0.000001   0.000146  -0.032391   0.377225
    40  C   -0.000002   0.004696   0.299482  -0.000000  -0.000000   0.000000
    41  H   -0.000000  -0.000068  -0.042449   0.000000  -0.000000  -0.000000
    42  H   -0.000000  -0.000068  -0.042444   0.000000  -0.000000  -0.000000
    43  H   -0.000000   0.000146  -0.032391  -0.000000   0.000001  -0.000001
    44  Co  -0.000004  -0.080965  -0.053408  -0.080966  -0.053409  -0.003026
              37         38         39         40         41         42
     1  C   -0.000000  -0.000000  -0.000022  -0.000014  -0.000000  -0.000000
     2  C   -0.000000  -0.000000   0.000001  -0.000059   0.000004   0.000004
     3  C    0.000000   0.000000   0.000000   0.000002  -0.000000  -0.000000
     4  C    0.000000   0.000000  -0.000000  -0.000000   0.000000   0.000000
     5  C   -0.000000  -0.000000   0.000000  -0.000000   0.000000   0.000000
     6  C    0.000004   0.000004  -0.000013   0.000000  -0.000000  -0.000000
     7  H    0.000000   0.000000   0.000000  -0.000000  -0.000000  -0.000000
     8  H   -0.000000  -0.000000   0.000000   0.000000  -0.000000  -0.000000
     9  H   -0.000000  -0.000000   0.000000  -0.000000   0.000000   0.000000
    10  C   -0.000142  -0.000142   0.000018   0.000000  -0.000000  -0.000000
    11  C    0.000699   0.000695  -0.000404   0.000017  -0.000000  -0.000000
    12  C   -0.001282  -0.001279   0.002613   0.000000  -0.000000  -0.000000
    13  C   -0.000009  -0.000009   0.000006   0.000000   0.000000   0.000000
    14  C    0.002792   0.002789   0.000024   0.000000   0.000000   0.000000
    15  C   -0.000002  -0.000002  -0.000000  -0.000000  -0.000000  -0.000000
    16  H   -0.000000  -0.000000  -0.000000   0.000000   0.000000   0.000000
    17  C   -0.000007  -0.000007   0.000001   0.000000  -0.000000  -0.000000
    18  H    0.000530   0.000529  -0.000033  -0.000000  -0.000000  -0.000000
    19  H   -0.000000  -0.000000  -0.000000   0.000000  -0.000000  -0.000000
    20  H   -0.000000  -0.000000  -0.000000  -0.000000   0.000000   0.000000
    21  C   -0.000000  -0.000000   0.000000   0.005833  -0.000142  -0.000142
    22  C   -0.000000  -0.000000  -0.000001  -0.042967   0.000695   0.000699
    23  C   -0.000000  -0.000000  -0.000000  -0.048034  -0.001279  -0.001283
    24  C    0.000000   0.000000   0.000000  -0.000117  -0.000009  -0.000009
    25  C    0.000000   0.000000   0.000000  -0.003019   0.002789   0.002792
    26  C   -0.000000  -0.000000  -0.000000   0.000009  -0.000002  -0.000002
    27  H    0.000000   0.000000   0.000000   0.000003  -0.000000  -0.000000
    28  C   -0.000000  -0.000000  -0.000000  -0.000115  -0.000007  -0.000007
    29  H   -0.000000  -0.000000   0.000000   0.004174   0.000529   0.000530
    30  H   -0.000000  -0.000000   0.000000  -0.000000  -0.000000  -0.000000
    31  H    0.000000   0.000000   0.000000  -0.000002  -0.000000  -0.000000
    32  N    0.000000   0.000000  -0.000000   0.004696  -0.000068  -0.000068
    33  N   -0.000000  -0.000000   0.000001   0.299482  -0.042449  -0.042444
    34  N   -0.000068  -0.000068   0.000146  -0.000000   0.000000   0.000000
    35  N   -0.042443  -0.042448  -0.032391  -0.000000  -0.000000  -0.000000
    36  C    0.377847   0.377853   0.377225   0.000000  -0.000000  -0.000000
    37  H    0.524642  -0.040384  -0.025425  -0.000000  -0.000000   0.000000
    38  H   -0.040384   0.524643  -0.025434  -0.000000   0.000000  -0.000000
    39  H   -0.025425  -0.025434   0.481298  -0.000001   0.000000   0.000000
    40  C   -0.000000  -0.000000  -0.000001   5.050150   0.377853   0.377848
    41  H   -0.000000   0.000000   0.000000   0.377853   0.524644  -0.040384
    42  H    0.000000  -0.000000   0.000000   0.377848  -0.040384   0.524643
    43  H    0.000000   0.000000  -0.000023   0.377225  -0.025434  -0.025424
    44  Co   0.000992   0.000996   0.007325  -0.003026   0.000996   0.000992
              43         44
     1  C   -0.000022   0.271272
     2  C   -0.000013  -0.068124
     3  C    0.000000   0.003397
     4  C   -0.000000   0.003111
     5  C    0.000000   0.003397
     6  C    0.000001  -0.068125
     7  H    0.000000  -0.000554
     8  H    0.000000   0.000158
     9  H    0.000000  -0.000554
    10  C    0.000000   0.007972
    11  C   -0.000001   0.372948
    12  C   -0.000000   0.004712
    13  C    0.000000  -0.000518
    14  C    0.000000  -0.000474
    15  C   -0.000000  -0.000011
    16  H    0.000000   0.000058
    17  C   -0.000000   0.000005
    18  H    0.000000   0.000019
    19  H    0.000000   0.000016
    20  H    0.000000  -0.000004
    21  C    0.000018   0.007971
    22  C   -0.000404   0.372950
    23  C    0.002613   0.004712
    24  C    0.000006  -0.000518
    25  C    0.000024  -0.000474
    26  C   -0.000000  -0.000011
    27  H   -0.000000   0.000058
    28  C    0.000001   0.000005
    29  H   -0.000033   0.000019
    30  H   -0.000000   0.000016
    31  H   -0.000000  -0.000004
    32  N    0.000146  -0.080965
    33  N   -0.032391  -0.053408
    34  N   -0.000000  -0.080966
    35  N    0.000001  -0.053409
    36  C   -0.000001  -0.003026
    37  H    0.000000   0.000992
    38  H    0.000000   0.000996
    39  H   -0.000023   0.007325
    40  C    0.377225  -0.003026
    41  H   -0.025434   0.000996
    42  H   -0.025424   0.000992
    43  H    0.481298   0.007325
    44  Co   0.007325  16.292590
          Atomic-Atomic Spin Densities.
               1          2          3          4          5          6
     1  C   -0.243622  -0.010030   0.003815   0.003878   0.003815  -0.010030
     2  C   -0.010030   0.102747   0.005484  -0.003513   0.000950   0.002836
     3  C    0.003815   0.005484  -0.079939  -0.005733   0.000572   0.000950
     4  C    0.003878  -0.003513  -0.005733   0.123629  -0.005734  -0.003513
     5  C    0.003815   0.000950   0.000572  -0.005734  -0.079938   0.005485
     6  C   -0.010030   0.002836   0.000950  -0.003513   0.005485   0.102747
     7  H   -0.000393  -0.000071   0.002675   0.000709   0.000002  -0.000072
     8  H   -0.000075   0.000011   0.000054   0.000051   0.000054   0.000011
     9  H   -0.000393  -0.000072   0.000002   0.000709   0.002675  -0.000071
    10  C   -0.000207  -0.000019   0.000001   0.000017   0.000343  -0.000154
    11  C    0.004977  -0.000928   0.000001   0.000029  -0.000190  -0.006319
    12  C    0.000047   0.000000   0.000000  -0.000000  -0.000009   0.000029
    13  C    0.000018   0.000000  -0.000000   0.000005  -0.000227  -0.000358
    14  C    0.000001   0.000000  -0.000000   0.000000  -0.000001  -0.000018
    15  C   -0.000000   0.000000   0.000000  -0.000000   0.000002   0.000009
    16  H   -0.000001  -0.000000  -0.000000   0.000002   0.000051   0.000048
    17  C   -0.000000  -0.000000   0.000000  -0.000000   0.000000   0.000001
    18  H    0.000000  -0.000000  -0.000000   0.000000   0.000000   0.000000
    19  H    0.000000   0.000000  -0.000000  -0.000000   0.000000   0.000000
    20  H    0.000000   0.000000  -0.000000  -0.000000  -0.000000  -0.000000
    21  C   -0.000207  -0.000154   0.000343   0.000017   0.000001  -0.000019
    22  C    0.004978  -0.006319  -0.000190   0.000029   0.000001  -0.000928
    23  C    0.000047   0.000029  -0.000009  -0.000000   0.000000   0.000000
    24  C    0.000018  -0.000358  -0.000227   0.000005  -0.000000   0.000000
    25  C    0.000001  -0.000018  -0.000001   0.000000  -0.000000   0.000000
    26  C   -0.000000   0.000009   0.000002  -0.000000   0.000000   0.000000
    27  H   -0.000001   0.000048   0.000051   0.000002  -0.000000  -0.000000
    28  C   -0.000000   0.000001   0.000000  -0.000000   0.000000  -0.000000
    29  H    0.000000   0.000000   0.000000   0.000000  -0.000000  -0.000000
    30  H    0.000000   0.000000   0.000000  -0.000000  -0.000000   0.000000
    31  H    0.000000  -0.000000  -0.000000  -0.000000  -0.000000   0.000000
    32  N    0.000913   0.011819   0.003085   0.000028   0.000025  -0.000078
    33  N   -0.000576   0.000384  -0.000010  -0.000000  -0.000000   0.000003
    34  N    0.000913  -0.000078   0.000025   0.000028   0.003085   0.011819
    35  N   -0.000576   0.000003  -0.000000  -0.000000  -0.000010   0.000384
    36  C   -0.000013   0.000000  -0.000000  -0.000000  -0.000000  -0.000005
    37  H    0.000001  -0.000000  -0.000000   0.000000  -0.000000  -0.000001
    38  H    0.000001  -0.000000  -0.000000   0.000000  -0.000000  -0.000001
    39  H    0.000011  -0.000000   0.000000   0.000000   0.000000  -0.000000
    40  C   -0.000013  -0.000005  -0.000000  -0.000000  -0.000000   0.000000
    41  H    0.000001  -0.000001  -0.000000   0.000000  -0.000000  -0.000000
    42  H    0.000001  -0.000001  -0.000000   0.000000  -0.000000  -0.000000
    43  H    0.000011  -0.000000   0.000000   0.000000   0.000000  -0.000000
    44  Co   0.027581  -0.011388  -0.001692   0.001430  -0.001693  -0.011388
               7          8          9         10         11         12
     1  C   -0.000393  -0.000075  -0.000393  -0.000207   0.004977   0.000047
     2  C   -0.000071   0.000011  -0.000072  -0.000019  -0.000928   0.000000
     3  C    0.002675   0.000054   0.000002   0.000001   0.000001   0.000000
     4  C    0.000709   0.000051   0.000709   0.000017   0.000029  -0.000000
     5  C    0.000002   0.000054   0.002675   0.000343  -0.000190  -0.000009
     6  C   -0.000072   0.000011  -0.000071  -0.000154  -0.006319   0.000029
     7  H   -0.002967  -0.000039  -0.000012  -0.000000   0.000000  -0.000000
     8  H   -0.000039  -0.005779  -0.000039  -0.000000   0.000000   0.000000
     9  H   -0.000012  -0.000039  -0.002967  -0.000083   0.000015   0.000001
    10  C   -0.000000  -0.000000  -0.000083  -0.004443   0.001570  -0.001968
    11  C    0.000000   0.000000   0.000015   0.001570   0.207336  -0.001676
    12  C   -0.000000   0.000000   0.000001  -0.001968  -0.001676  -0.027487
    13  C    0.000000   0.000000   0.000092   0.004277   0.000282   0.000602
    14  C    0.000000   0.000000   0.000000   0.000826   0.000538   0.000031
    15  C    0.000000   0.000000   0.000004  -0.000775  -0.000027   0.000194
    16  H   -0.000000  -0.000000  -0.000119  -0.000157  -0.000001  -0.000006
    17  C   -0.000000  -0.000000  -0.000000   0.000125  -0.000014  -0.000235
    18  H   -0.000000  -0.000000  -0.000000  -0.000009  -0.000002  -0.000066
    19  H   -0.000000  -0.000000  -0.000000   0.000003  -0.000000  -0.000008
    20  H    0.000000   0.000000   0.000000  -0.000005  -0.000000   0.000013
    21  C   -0.000083  -0.000000  -0.000000  -0.000000   0.000001  -0.000000
    22  C    0.000015   0.000000   0.000000   0.000001   0.001907   0.000000
    23  C    0.000001   0.000000  -0.000000  -0.000000   0.000000   0.000000
    24  C    0.000092   0.000000   0.000000   0.000000   0.000000   0.000000
    25  C    0.000000   0.000000   0.000000   0.000000   0.000000   0.000000
    26  C    0.000004   0.000000   0.000000  -0.000000  -0.000000  -0.000000
    27  H   -0.000119  -0.000000  -0.000000  -0.000000   0.000000  -0.000000
    28  C   -0.000000  -0.000000  -0.000000  -0.000000  -0.000000   0.000000
    29  H   -0.000000  -0.000000  -0.000000   0.000000   0.000000  -0.000000
    30  H   -0.000000  -0.000000  -0.000000  -0.000000  -0.000000   0.000000
    31  H    0.000000   0.000000   0.000000   0.000000  -0.000000  -0.000000
    32  N   -0.000357  -0.000000  -0.000001  -0.000000  -0.000045  -0.000000
    33  N    0.000002   0.000000   0.000000   0.000000  -0.000004   0.000000
    34  N   -0.000001  -0.000000  -0.000357  -0.000934  -0.030731   0.001479
    35  N    0.000000   0.000000   0.000002  -0.000765  -0.043279   0.006996
    36  C    0.000000   0.000000   0.000000  -0.000034   0.000654   0.000341
    37  H   -0.000000  -0.000000  -0.000000   0.000004   0.000450  -0.000137
    38  H   -0.000000  -0.000000  -0.000000   0.000004   0.000452  -0.000137
    39  H   -0.000000  -0.000000  -0.000000   0.000000  -0.000573  -0.000049
    40  C    0.000000   0.000000   0.000000   0.000000  -0.000001  -0.000000
    41  H   -0.000000  -0.000000  -0.000000   0.000000   0.000000  -0.000000
    42  H   -0.000000  -0.000000  -0.000000   0.000000   0.000000  -0.000000
    43  H   -0.000000  -0.000000  -0.000000  -0.000000   0.000001   0.000000
    44  Co   0.000282   0.000021   0.000282   0.001290   0.059757   0.000161
              13         14         15         16         17         18
     1  C    0.000018   0.000001  -0.000000  -0.000001  -0.000000   0.000000
     2  C    0.000000   0.000000   0.000000  -0.000000  -0.000000  -0.000000
     3  C   -0.000000  -0.000000   0.000000  -0.000000   0.000000  -0.000000
     4  C    0.000005   0.000000  -0.000000   0.000002  -0.000000   0.000000
     5  C   -0.000227  -0.000001   0.000002   0.000051   0.000000   0.000000
     6  C   -0.000358  -0.000018   0.000009   0.000048   0.000001   0.000000
     7  H    0.000000   0.000000   0.000000  -0.000000  -0.000000  -0.000000
     8  H    0.000000   0.000000   0.000000  -0.000000  -0.000000  -0.000000
     9  H    0.000092   0.000000   0.000004  -0.000119  -0.000000  -0.000000
    10  C    0.004277   0.000826  -0.000775  -0.000157   0.000125  -0.000009
    11  C    0.000282   0.000538  -0.000027  -0.000001  -0.000014  -0.000002
    12  C    0.000602   0.000031   0.000194  -0.000006  -0.000235  -0.000066
    13  C    0.019993   0.000967  -0.009292   0.000202  -0.001179  -0.000005
    14  C    0.000967   0.050791  -0.002089  -0.000002  -0.006781   0.000062
[...]
 
              Baa    -0.0055    -0.741    -0.264    -0.247 -0.0000 -0.0001  1.0000
    40 C(13)  Bbb    -0.0032    -0.434    -0.155    -0.145 -0.6510  0.7591  0.0000
              Bcc     0.0088     1.175     0.419     0.392  0.7591  0.6510  0.0001
 
              Baa    -0.0039    -2.080    -0.742    -0.694 -0.0353  0.3484  0.9367
    41 H(1)   Bbb    -0.0025    -1.315    -0.469    -0.439 -0.6710  0.6863 -0.2805
              Bcc     0.0064     3.395     1.211     1.132  0.7406  0.6384 -0.2096
 
              Baa    -0.0039    -2.079    -0.742    -0.694  0.0353 -0.3484  0.9367
    42 H(1)   Bbb    -0.0025    -1.315    -0.469    -0.439 -0.6710  0.6864  0.2805
              Bcc     0.0064     3.394     1.211     1.132  0.7406  0.6384  0.2095
 
              Baa    -0.0072    -3.868    -1.380    -1.290  0.0000 -0.0002  1.0000
    43 H(1)   Bbb    -0.0059    -3.173    -1.132    -1.058  0.7733 -0.6341 -0.0001
              Bcc     0.0132     7.041     2.512     2.349  0.6341  0.7733  0.0001
 
              Baa    -1.2974  -163.830   -58.459   -54.648  1.0000  0.0000  0.0000
    44 Co(59) Bbb     0.1777    22.442     8.008     7.486 -0.0000  1.0000 -0.0000
              Bcc     1.1196   141.388    50.451    47.162 -0.0000  0.0000  1.0000
 

 ---------------------------------------------------------------------------------

   1 Symmetry operations used in ECPInt.
 ECPInt:  NShTT=   11781 NPrTT=   71406 LenC2=    9542 LenP2D=   32117.
 LDataN:  DoStor=T MaxTD1= 7 Len=  274
 Calling FoFJK, ICntrl=      2127 FMM=F ISym2X=0 I1Cent= 0 IOpClX= 1 NMat=1 NMatS=1 NMatT=0.
 -------------------------------------------------------------------
 Center     Atomic                   Forces (Hartrees/Bohr)
 Number     Number              X              Y              Z
 -------------------------------------------------------------------
      1        6           0.000001896   -0.026984419   -0.000005806
      2        6           0.035986811    0.018652443    0.000003842
      3        6           0.000738759    0.001520075   -0.000000093
      4        6          -0.000000164    0.000313015   -0.000000476
      5        6          -0.000738686    0.001518331   -0.000000250
      6        6          -0.035989629    0.018656270    0.000003410
      7        1          -0.000718359    0.002466710   -0.000000277
      8        1           0.000000062   -0.000012064    0.000000074
      9        1           0.000718469    0.002466802   -0.000000373
     10        6          -0.005329567   -0.002801169    0.000000619
     11        6           0.004293593    0.003418039   -0.000004734
     12        6           0.007301867    0.002606433    0.000000127
     13        6           0.007363069    0.001948167   -0.000001192
     14        6           0.000339595    0.004228093   -0.000000249
     15        6          -0.007105042    0.004662885    0.000000799
     16        1           0.000249192   -0.000209633   -0.000000088
     17        6           0.000187616   -0.007738940   -0.000000055
     18        1           0.000635401   -0.000007000    0.000000147
     19        1           0.000367480   -0.000063764   -0.000000052
     20        1           0.000532304    0.000153694   -0.000000040
     21        6           0.005337101   -0.002809955   -0.000000385
     22        6          -0.004295177    0.003417694   -0.000004304
     23        6          -0.007312197    0.002607922   -0.000000171
     24        6          -0.007368034    0.001956204   -0.000000698
     25        6          -0.000334366    0.004229979   -0.000000204
     26        6           0.007106975    0.004662256    0.000000280
     27        1          -0.000249786   -0.000212046   -0.000000048
     28        6          -0.000188821   -0.007738822    0.000000026
     29        1          -0.000635914   -0.000008041    0.000000024
     30        1          -0.000367432   -0.000063731   -0.000000011
     31        1          -0.000532099    0.000153699   -0.000000023
     32        7          -0.015993571   -0.033050742    0.000002287
     33        7           0.014809078    0.012156083    0.000003339
     34        7           0.015994380   -0.033052240   -0.000000232
     35        7          -0.014801432    0.012152158    0.000004190
     36        6           0.000494675   -0.006425968   -0.000002153
     37        1           0.000365019    0.000384313    0.000459615
     38        1           0.000365251    0.000384380   -0.000458766
     39        1           0.000549598    0.001423828    0.000000711
     40        6          -0.000495404   -0.006428366   -0.000002270
     41        1          -0.000365302    0.000384366   -0.000458783
     42        1          -0.000365209    0.000383987    0.000459702
     43        1          -0.000549680    0.001424188    0.000000902
     44       27          -0.000002321    0.019274886    0.000001641
 -------------------------------------------------------------------
 Cartesian Forces:  Max     0.035989629 RMS     0.008070036

 GradGradGradGradGradGradGradGradGradGradGradGradGradGradGradGradGradGrad
 Berny optimization.
 Search for a local minimum.
 Step number   1 out of a maximum of    2
 All quantities printed in internal units (Hartrees-Bohrs-Radians)
 Second derivative matrix not updated -- first step.
 ITU=  0
     Eigenvalues ---    0.00056   0.00062   0.00198   0.00248   0.00249
     Eigenvalues ---    0.00391   0.00452   0.00618   0.00651   0.00664
     Eigenvalues ---    0.00672   0.00844   0.00845   0.01331   0.01593
     Eigenvalues ---    0.01830   0.02000   0.02044   0.02548   0.02552
     Eigenvalues ---    0.03066   0.03227   0.04088   0.04189   0.04456
     Eigenvalues ---    0.04519   0.04706   0.05396   0.05531   0.06387
     Eigenvalues ---    0.06401   0.06912   0.06941   0.07040   0.07061
     Eigenvalues ---    0.07064   0.07302   0.07687   0.07753   0.09638
     Eigenvalues ---    0.10176   0.10433   0.10454   0.11768   0.11936
     Eigenvalues ---    0.12003   0.12324   0.12487   0.12821   0.13397
     Eigenvalues ---    0.13403   0.13518   0.13689   0.14848   0.15647
     Eigenvalues ---    0.15909   0.16084   0.19619   0.20256   0.20662
     Eigenvalues ---    0.21359   0.22319   0.24421   0.25758   0.28890
     Eigenvalues ---    0.29746   0.30690   0.30917   0.30974   0.31784
     Eigenvalues ---    0.32672   0.34872   0.36780   0.38271   0.38431
     Eigenvalues ---    0.38444   0.41347   0.42609   0.45845   0.47962
     Eigenvalues ---    0.48713   0.48921   0.49354   0.51898   0.53538
     Eigenvalues ---    0.53883   0.54290   0.56520   0.64002   0.68958
     Eigenvalues ---    0.71599   0.73406   0.74570   0.83484   0.86646
     Eigenvalues ---    0.90782   0.91851   0.92888   0.94515   0.94819
     Eigenvalues ---    0.95667   0.97478   1.02101   1.05095   1.13516
     Eigenvalues ---    1.15912   1.16739   1.18507   1.21312   1.25718
     Eigenvalues ---    1.31804   1.38157   1.38284   1.45951   1.48174
     Eigenvalues ---    1.49985   1.51925   1.54153   1.61588   1.65182
     Eigenvalues ---    1.66531   1.67438   1.77097   1.79179   1.83454
     Eigenvalues ---    1.85858
 Angle between quadratic step and forces=  58.76 degrees.
 Linear search not attempted -- first point.
 B after Tr=    -0.000000   -0.001595   -0.000002
         Rot=    1.000000   -0.000000   -0.000000    0.000000 Ang=  -0.00 deg.
 Variable       Old X    -DE/DX   Delta X   Delta X   Delta X     New X
                                 (Linear)    (Quad)   (Total)
    X1        0.00000   0.00000   0.00000   0.00000   0.00000   0.00000
    Y1        1.36612  -0.02698   0.00000  -0.05550  -0.05709   1.30903
    Z1        0.00019  -0.00001   0.00000  -0.00002  -0.00002   0.00016
    X2       -2.36402   0.03599   0.00000   0.04981   0.04981  -2.31421
    Y2        2.55938   0.01865   0.00000  -0.00789  -0.00948   2.54989
    Z2        0.00006   0.00000   0.00000   0.00003   0.00003   0.00009
    X3       -2.34490   0.00074   0.00000   0.02031   0.02031  -2.32459
    Y3        5.19206   0.00152   0.00000   0.00109  -0.00051   5.19155
    Z3       -0.00001  -0.00000   0.00000   0.00005   0.00005   0.00004
    X4        0.00000  -0.00000   0.00000  -0.00000  -0.00000   0.00000
    Y4        6.43191   0.00031   0.00000   0.01743   0.01583   6.44775
    Z4        0.00003  -0.00000   0.00000   0.00004   0.00004   0.00006
    X5        2.34491  -0.00074   0.00000  -0.02032  -0.02032   2.32459
    Y5        5.19206   0.00152   0.00000   0.00109  -0.00051   5.19155
    Z5        0.00009  -0.00000   0.00000   0.00002   0.00002   0.00011
    X6        2.36403  -0.03599   0.00000  -0.04981  -0.04981   2.31422
    Y6        2.55937   0.01866   0.00000  -0.00789  -0.00948   2.54989
    Z6        0.00014   0.00000   0.00000   0.00000   0.00000   0.00014
    X7       -4.07251  -0.00072   0.00000   0.01656   0.01656  -4.05595
    Y7        6.28598   0.00247   0.00000   0.00524   0.00364   6.28963
    Z7       -0.00008  -0.00000   0.00000   0.00006   0.00007  -0.00002
    X8        0.00000   0.00000   0.00000  -0.00000  -0.00000  -0.00000
    Y8        8.48523  -0.00001   0.00000   0.01740   0.01580   8.50103
    Z8       -0.00002   0.00000   0.00000   0.00005   0.00005   0.00003
    X9        4.07252   0.00072   0.00000  -0.01657  -0.01657   4.05595
    Y9        6.28599   0.00247   0.00000   0.00524   0.00365   6.28963
    Z9        0.00009  -0.00000   0.00000   0.00001   0.00001   0.00010
   X10        6.93467  -0.00533   0.00000  -0.02340  -0.02340   6.91128
   Y10        1.09681  -0.00280   0.00000  -0.01031  -0.01191   1.08490
   Z10       -0.00004   0.00000   0.00000  -0.00002  -0.00002  -0.00007
   X11        3.58529   0.00429   0.00000  -0.02044  -0.02044   3.56485
   Y11       -1.70108   0.00342   0.00000  -0.00405  -0.00565  -1.70672
   Z11        0.00019  -0.00000   0.00000  -0.00004  -0.00004   0.00015
   X12        7.87587   0.00730   0.00000  -0.01191  -0.01191   7.86395
   Y12       -1.40093   0.00261   0.00000   0.00279   0.00119  -1.39974
   Z12       -0.00019   0.00000   0.00000   0.00000  -0.00000  -0.00019
   X13        8.55869   0.00736   0.00000  -0.02257  -0.02257   8.53611
   Y13        3.14490   0.00195   0.00000  -0.00072  -0.00232   3.14258
   Z13       -0.00010  -0.00000   0.00000  -0.00004  -0.00004  -0.00014
   X14       10.45409   0.00034   0.00000  -0.01278  -0.01278  10.44131
   Y14       -1.89362   0.00423   0.00000   0.00670   0.00511  -1.88851
   Z14       -0.00038  -0.00000   0.00000   0.00003   0.00002  -0.00036
   X15       11.16556  -0.00711   0.00000  -0.03146  -0.03146  11.13409
   Y15        2.64785   0.00466   0.00000   0.00532   0.00372   2.65157
   Z15       -0.00032   0.00000   0.00000  -0.00002  -0.00002  -0.00034
   X16        7.86747   0.00025   0.00000  -0.02380  -0.02380   7.84367
   Y16        5.07180  -0.00021   0.00000  -0.00200  -0.00359   5.06821
   Z16        0.00002  -0.00000   0.00000  -0.00007  -0.00007  -0.00004
   X17       12.08757   0.00019   0.00000  -0.01830  -0.01830  12.06927
   Y17        0.19144  -0.00774   0.00000   0.00014  -0.00145   0.18998
   Z17       -0.00046  -0.00000   0.00000   0.00002   0.00002  -0.00044
   X18       11.16767   0.00064   0.00000  -0.00379  -0.00379  11.16388
   Y18       -3.81607  -0.00001   0.00000   0.00936   0.00776  -3.80831
   Z18       -0.00047   0.00000   0.00000   0.00005   0.00005  -0.00042
   X19       12.47206   0.00037   0.00000  -0.03228  -0.03228  12.43978
   Y19        4.22929  -0.00006   0.00000   0.00667   0.00508   4.23436
   Z19       -0.00037  -0.00000   0.00000  -0.00002  -0.00003  -0.00040
   X20       14.11256   0.00053   0.00000  -0.01574  -0.01574  14.09682
   Y20       -0.13453   0.00015   0.00000   0.00715   0.00556  -0.12897
   Z20       -0.00061  -0.00000   0.00000   0.00004   0.00004  -0.00058
   X21       -6.93467   0.00534   0.00000   0.02340   0.02340  -6.91127
   Y21        1.09681  -0.00281   0.00000  -0.01032  -0.01192   1.08489
   Z21       -0.00007  -0.00000   0.00000   0.00000   0.00000  -0.00007
   X22       -3.58528  -0.00430   0.00000   0.02044   0.02044  -3.56484
   Y22       -1.70108   0.00342   0.00000  -0.00405  -0.00565  -1.70673
   Z22        0.00011  -0.00000   0.00000  -0.00001  -0.00002   0.00009
   X23       -7.87585  -0.00731   0.00000   0.01190   0.01190  -7.86394
   Y23       -1.40094   0.00261   0.00000   0.00279   0.00119  -1.39975
   Z23       -0.00012  -0.00000   0.00000   0.00001   0.00000  -0.00012
   X24       -8.55868  -0.00737   0.00000   0.02257   0.02257  -8.53611
   Y24        3.14488   0.00196   0.00000  -0.00072  -0.00231   3.14257
   Z24       -0.00010  -0.00000   0.00000  -0.00002  -0.00002  -0.00012
   X25      -10.45408  -0.00033   0.00000   0.01278   0.01278 -10.44130
   Y25       -1.89363   0.00423   0.00000   0.00671   0.00511  -1.88852
   Z25       -0.00019  -0.00000   0.00000  -0.00000  -0.00000  -0.00019
   X26      -11.16556   0.00711   0.00000   0.03147   0.03147 -11.13409
   Y26        2.64783   0.00466   0.00000   0.00532   0.00372   2.65155
   Z26       -0.00018   0.00000   0.00000  -0.00003  -0.00003  -0.00021
   X27       -7.86747  -0.00025   0.00000   0.02380   0.02380  -7.84367
   Y27        5.07180  -0.00021   0.00000  -0.00200  -0.00360   5.06820
   Z27       -0.00004  -0.00000   0.00000  -0.00003  -0.00003  -0.00007
   X28      -12.08756  -0.00019   0.00000   0.01830   0.01830 -12.06926
   Y28        0.19142  -0.00774   0.00000   0.00014  -0.00145   0.18997
   Z28       -0.00023   0.00000   0.00000  -0.00001  -0.00002  -0.00025
   X29      -11.16766  -0.00064   0.00000   0.00379   0.00379 -11.16387
   Y29       -3.81609  -0.00001   0.00000   0.00936   0.00776  -3.80833
   Z29       -0.00020   0.00000   0.00000   0.00001   0.00000  -0.00020
   X30      -12.47206  -0.00037   0.00000   0.03229   0.03229 -12.43978
   Y30        4.22927  -0.00006   0.00000   0.00667   0.00508   4.23435
   Z30       -0.00021  -0.00000   0.00000  -0.00004  -0.00004  -0.00024
   X31      -14.11255  -0.00053   0.00000   0.01574   0.01574 -14.09681
   Y31       -0.13455   0.00015   0.00000   0.00715   0.00556  -0.12899
   Z31       -0.00029  -0.00000   0.00000  -0.00002  -0.00002  -0.00031
   X32       -4.32230  -0.01599   0.00000   0.01793   0.01793  -4.30436
   Y32        0.87804  -0.03305   0.00000  -0.03713  -0.03873   0.83932
   Z32        0.00003   0.00000   0.00000   0.00002   0.00002   0.00004
   X33       -5.84130   0.01481   0.00000   0.03227   0.03227  -5.80903
   Y33       -3.01866   0.01216   0.00000   0.01384   0.01225  -3.00641
   Z33       -0.00008   0.00000   0.00000   0.00001   0.00001  -0.00007
   X34        4.32230   0.01599   0.00000  -0.01793  -0.01793   4.30437
   Y34        0.87805  -0.03305   0.00000  -0.03713  -0.03872   0.83932
   Z34        0.00017  -0.00000   0.00000  -0.00002  -0.00002   0.00014
   X35        5.84130  -0.01480   0.00000  -0.03227  -0.03227   5.80903
   Y35       -3.01865   0.01215   0.00000   0.01384   0.01224  -3.00640
   Z35       -0.00008   0.00000   0.00000  -0.00001  -0.00001  -0.00009
   X36        6.01285   0.00049   0.00000  -0.02139  -0.02139   5.99146
   Y36       -5.71280  -0.00643   0.00000   0.00398   0.00238  -5.71041
   Z36        0.00001  -0.00000   0.00000  -0.00000  -0.00001  -0.00000
   X37        7.00422   0.00037   0.00000  -0.01562  -0.01562   6.98860
   Y37       -6.39650   0.00038   0.00000   0.01061   0.00901  -6.38749
   Z37       -1.68737   0.00046   0.00000   0.00188   0.00187  -1.68550
   X38        7.00340   0.00037   0.00000  -0.01563  -0.01563   6.98777
   Y38       -6.39651   0.00038   0.00000   0.01062   0.00902  -6.38749
   Z38        1.68787  -0.00046   0.00000  -0.00187  -0.00188   1.68599
   X39        4.10591   0.00055   0.00000  -0.02174  -0.02174   4.08418
   Y39       -6.50773   0.00142   0.00000   0.01277   0.01118  -6.49655
   Z39       -0.00048   0.00000   0.00000  -0.00000  -0.00001  -0.00049
   X40       -6.01283  -0.00050   0.00000   0.02139   0.02139  -5.99144
   Y40       -5.71280  -0.00643   0.00000   0.00398   0.00238  -5.71042
   Z40        0.00008  -0.00000   0.00000   0.00002   0.00002   0.00010
   X41       -7.00327  -0.00037   0.00000   0.01563   0.01563  -6.98764
   Y41       -6.39649   0.00038   0.00000   0.01062   0.00903  -6.38747
   Z41        1.68802  -0.00046   0.00000  -0.00185  -0.00185   1.68617
   X42       -7.00431  -0.00037   0.00000   0.01563   0.01563  -6.98868
   Y42       -6.39654   0.00038   0.00000   0.01060   0.00900  -6.38754
   Z42       -1.68722   0.00046   0.00000   0.00190   0.00190  -1.68532
   X43       -4.10590  -0.00055   0.00000   0.02174   0.02174  -4.08416
   Y43       -6.50774   0.00142   0.00000   0.01278   0.01118  -6.49655
   Z43       -0.00053   0.00000   0.00000   0.00004   0.00003  -0.00050
   X44        0.00001  -0.00000   0.00000  -0.00001  -0.00001   0.00001
   Y44       -2.24911   0.01927   0.00000   0.02249   0.02090  -2.22821
   Z44        0.00020   0.00000   0.00000  -0.00003  -0.00003   0.00017
         Item               Value     Threshold  Converged?
 Maximum Force            0.035990     0.000450     NO 
 RMS     Force            0.008070     0.000300     NO 
 Maximum Displacement     0.057091     0.001800     NO 
 RMS     Displacement     0.015290     0.001200     NO 
 Predicted change in Energy=-4.231239D-03
 GradGradGradGradGradGradGradGradGradGradGradGradGradGradGradGradGradGrad

 Unable to Open any file for archive entry.
 1\1\GINC-X11P1N5\Force\UPBE1PBE\GenECP\C22H17Co1N4(3)\MAYUMIAO\17-Jul-
 2024\0\\# pbe1pbe em=gd3bj genecp g09default scf=(xqc,maxcycle=64) for
 ce guess=read nosymm\\Title Card\\0,3\C,0.00000072,0.72291793,0.000099
 35\C,-1.250988,1.35436368,0.00003071\C,-1.24086881,2.74751853,-0.00000
 302\C,0.00000151,3.40362196,0.00001325\C,1.24087182,2.74751919,0.00004
 721\C,1.25099152,1.35436226,0.00007325\H,-2.15508105,3.32639941,-0.000
 04481\H,0.00000071,4.49018815,-0.00001099\H,2.15508381,3.32640008,0.00
 004941\C,3.66966994,0.58040682,-0.00002309\C,1.89725516,-0.90017115,0.
 00010159\C,4.16772826,-0.74133785,-0.00009838\C,4.52906308,1.66420867,
 -0.00005297\C,5.53206445,-1.00205928,-0.00020084\C,5.90855749,1.401179
 8,-0.00016902\H,4.16328385,2.68388242,0.00001194\C,6.39646859,0.101303
 37,-0.00024166\H,5.909676,-2.01937926,-0.00024773\H,6.59993026,2.23804
 158,-0.00019591\H,7.46804417,-0.07118909,-0.00032476\C,-3.66967022,0.5
 8040628,-0.00003584\C,-1.89724807,-0.9001738,0.00005841\C,-4.1677181,-
 0.74134453,-0.00006543\C,-4.5290602,1.66419986,-0.00005068\C,-5.532059
 58,-1.00206789,-0.00010169\C,-5.90855749,1.40117219,-0.00009745\H,-4.1
 6328353,2.68387842,-0.00002213\C,-6.39646359,0.10129441,-0.00012241\H,
 -5.90966862,-2.01938697,-0.00010807\H,-6.59993113,2.23803298,-0.000108
 52\H,-7.46803932,-0.07120019,-0.0001514\N,-2.28726039,0.46464041,0.000
 01469\N,-3.09108139,-1.59740547,-0.00004029\N,2.28726355,0.46464242,0.
 00008814\N,3.09108344,-1.597399,-0.0000434\C,3.18186387,-3.02308283,0.
 00000569\H,3.70647152,-3.38488421,-0.89291611\H,3.70604127,-3.38488697
 ,0.89318088\H,2.17275605,-3.44374371,-0.00025227\C,-3.18185517,-3.0230
 8593,0.0000439\H,-3.70596988,-3.38487818,0.89326112\H,-3.70652215,-3.3
 8490405,-0.89283607\H,-2.17274636,-3.44374513,-0.00027974\Co,0.0000079
 ,-1.19017817,0.00010509\\Version=ES64L-G16RevC.01\HF=-1212.1320201\S2=
 2.187511\S2-1=0.\S2A=2.0043\RMSD=1.933e-09\RMSF=8.070e-03\Dipole=0.000
 0533,-1.3798384,-0.000118\Quadrupole=8.1447952,11.1879043,-19.3326995,
 -0.0000879,-0.0003057,0.0003075\PG=C01 [X(C22H17Co1N4)]\\@
 The archive entry for this job was punched.


 IF OTHER PEOPLE ARE GOING TO TALK, CONVERSATION IS SIMPLY IMPOSSIBLE.

                                               -- WHISTLER'S PRINCIPLE
 Job cpu time:       0 days  0 hours 57 minutes 44.5 seconds.
 Elapsed time:       0 days  0 hours  1 minutes  2.7 seconds.
 File lengths (MBytes):  RWF=    184 Int=      0 D2E=      0 Chk=     72 Scr=      1
 Normal termination of Gaussian 16 at Wed Jul 17 21:04:44 2024.
