 Entering Gaussian System, Link 0=g16
 Input=JOBS/21_A.gjf
 Output=JOBS/21_A.log
 Initial command:
 /data/app/gaussian/C01-avx2//g16/l1.exe "/tmp/Gau-2071671.inp" -scrdir="/tmp/"
 Entering Link 1 = /data/app/gaussian/C01-avx2//g16/l1.exe PID=   2071672.
  
 Copyright (c) 1988-2019, Gaussian, Inc.  All Rights Reserved.
  
 This is part of the Gaussian(R) 16 program.  It is based on
 the Gaussian(R) 09 system (copyright 2009, Gaussian, Inc.),
 the Gaussian(R) 03 system (copyright 2003, Gaussian, Inc.),
 the Gaussian(R) 98 system (copyright 1998, Gaussian, Inc.),
 the Gaussian(R) 94 system (copyright 1995, Gaussian, Inc.),
 the Gaussian 92(TM) system (copyright 1992, Gaussian, Inc.),
 the Gaussian 90(TM) system (copyright 1990, Gaussian, Inc.),
 the Gaussian 88(TM) system (copyright 1988, Gaussian, Inc.),
 the Gaussian 86(TM) system (copyright 1986, Carnegie Mellon
 University), and the Gaussian 82(TM) system (copyright 1983,
 Carnegie Mellon University). Gaussian is a federally registered
 trademark of Gaussian, Inc.
  
 This software contains proprietary and confidential information,
 including trade secrets, belonging to Gaussian, Inc.
  
 This software is provided under written license and may be
 used, copied, transmitted, or stored only in accord with that
 written license.
  
 The following legend is applicable only to US Government
 contracts under FAR:
  
                    RESTRICTED RIGHTS LEGEND
  
 Use, reproduction and disclosure by the US Government is
 subject to restrictions as set forth in subparagraphs (a)
 and (c) of the Commercial Computer Software - Restricted
 Rights clause in FAR 52.227-19.
  
 Gaussian, Inc.
 340 Quinnipiac St., Bldg. 40, Wallingford CT 06492
  
  
 ---------------------------------------------------------------
 Warning -- This program may not be used in any manner that
 competes with the business of Gaussian, Inc. or will provide
 assistance to any competitor of Gaussian, Inc.  The licensee
 of this program is prohibited from giving any competitor of
 Gaussian, Inc. access to this program.  By using this program,
 the user acknowledges that Gaussian, Inc. is engaged in the
 business of creating and licensing software in the field of
 computational chemistry and represents and warrants to the
 licensee that it is not a competitor of Gaussian, Inc. and that
 it will not use this program in any manner prohibited above.
 ---------------------------------------------------------------
  

 Cite this work as:
 Gaussian 16, Revision C.01,
 M. J. Frisch, G. W. Trucks, H. B. Schlegel, G. E. Scuseria, 
 M. A. Robb, J. R. Cheeseman, G. Scalmani, V. Barone, 
 G. A. Petersson, H. Nakatsuji, X. Li, M. Caricato, A. V. Marenich, 
 J. Bloino, B. G. Janesko, R. Gomperts, B. Mennucci, H. P. Hratchian, 
 J. V. Ortiz, A. F. Izmaylov, J. L. Sonnenberg, D. Williams-Young, 
 F. Ding, F. Lipparini, F. Egidi, J. Goings, B. Peng, A. Petrone, 
 T. Henderson, D. Ranasinghe, V. G. Zakrzewski, J. Gao, N. Rega, 
 G. Zheng, W. Liang, M. Hada, M. Ehara, K. Toyota, R. Fukuda, 
 J. Hasegawa, M. Ishida, T. Nakajima, Y. Honda, O. Kitao, H. Nakai, 
 T. Vreven, K. Throssell, J. A. Montgomery, Jr., J. E. Peralta, 
 F. Ogliaro, M. J. Bearpark, J. J. Heyd, E. N. Brothers, K. N. Kudin, 
 V. N. Staroverov, T. A. Keith, R. Kobayashi, J. Normand, 
 K. Raghavachari, A. P. Rendell, J. C. Burant, S. S. Iyengar, 
 J. Tomasi, M. Cossi, J. M. Millam, M. Klene, C. Adamo, R. Cammi, 
 J. W. Ochterski, R. L. Martin, K. Morokuma, O. Farkas, 
 J. B. Foresman, and D. J. Fox, Gaussian, Inc., Wallingford CT, 2019.
 
 ******************************************
 Gaussian 16:  ES64L-G16RevC.01  3-Jul-2019
                17-Jul-2024 
 ******************************************
 %chk=a.chk
 %nprocshared=56
 Will use up to   56 processors via shared memory.
 %mem=96gb
 ----------------------------------------------------------------------
 # pbe1pbe em=gd3bj genecp g09default scf=(xqc,maxcycle=64) force guess
 =read nosymm
 ----------------------------------------------------------------------
 1/10=7,30=1,38=1,158=3,167=1/1,3;
 2/12=2,15=1,17=6,18=5,40=1/2;
 3/5=7,11=2,16=1,17=8,25=1,27=10,30=1,71=1,74=-13,75=-4,116=-2,124=41,158=3/1,2,3;
 4/5=1,60=-1/1;
 5/5=2,7=64,8=3,13=1,38=6,87=10/2,8;
 6/7=2,8=2,9=2,10=2,28=1,87=10/1;
 7/29=1,30=1,87=10/1,2,3,16;
 1/10=7,30=1,158=3,167=1/3;
 99//99;
 Using 2006 physical constants.
 ----------
 Title Card
 ----------
 Symbolic Z-matrix:
 Charge =  0 Multiplicity = 1
 6                    -0.00001   0.77815   0.00012 
 6                    -1.27458   1.35691   0. 
 6                    -1.24627   2.74729  0. 
 6                     0.00001   3.39365   0.00001 
 6                     1.24626   2.74729   0.00005 
 6                     1.2746    1.3569    0.00005 
 1                    -2.15715   3.328    -0.00004 
 1                    0.         4.47789  -0.00001 
 1                     2.15716   3.328     0.00005 
 6                     3.68602   0.58311  -0.00003 
 6                     1.91068  -0.90309   0.00009 
 6                     4.17428  -0.7443   -0.00009 
 6                     4.5346    1.66507  -0.00005 
 6                     5.53969  -0.9999   -0.0002 
 6                     5.9221    1.4032   -0.00017 
 1                     4.16667   2.6831    0.00001 
 6                     6.39865   0.10309  -0.00024 
 1                     5.91101  -2.01993  -0.00024 
 1                     6.608     2.24065  -0.0002 
 1                     7.4728   -0.07134  -0.00033 
 6                    -3.68607   0.58315  -0.00004 
 6                    -1.91066  -0.90309   0.00005 
 6                    -4.17422  -0.7443   -0.00006 
 6                    -4.53456   1.66502  -0.00005 
 6                    -5.53973  -0.9999   -0.0001 
 6                    -5.92213   1.4032   -0.0001 
 1                    -4.16667   2.6831   -0.00002 
 6                    -6.39862   0.10307  -0.00012 
 1                    -5.911    -2.01994  -0.00011 
 1                    -6.608     2.24064  -0.00011 
 1                    -7.47281  -0.07135  -0.00015 
 7                    -2.30045   0.47446   0.00002 
 7                    -3.10758  -1.60047  -0.00004 
 7                     2.30045   0.47448   0.00008 
 7                     3.10756  -1.60045  -0.00003 
 6                     3.18909  -3.02784   0.00001 
 1                     3.70875  -3.39273  -0.89382 
 1                     3.70831  -3.39274   0.89409 
 1                     2.17933  -3.44475  -0.00026 
 6                    -3.18907  -3.02783   0.00005 
 1                    -3.70824  -3.39273   0.89418 
 1                    -3.70881  -3.39276  -0.89374 
 1                    -2.17932  -3.44476  -0.00029 
 27                    0.00001  -1.21114   0.00015 
 

 GradGradGradGradGradGradGradGradGradGradGradGradGradGradGradGradGradGrad
 Berny optimization.
 Initialization pass.
 Trust Radius=3.00D-01 FncErr=1.00D-07 GrdErr=1.00D-07 EigMax=2.50D+02 EigMin=1.00D-04
 Number of steps in this run=      2 maximum allowed number of steps=      2.
 GradGradGradGradGradGradGradGradGradGradGradGradGradGradGradGradGradGrad

                          Input orientation:                          
 ---------------------------------------------------------------------
 Center     Atomic      Atomic             Coordinates (Angstroms)
 Number     Number       Type             X           Y           Z
 ---------------------------------------------------------------------
      1          6           0       -0.000011    0.778148    0.000121
      2          6           0       -1.274577    1.356909    0.000004
      3          6           0       -1.246270    2.747287   -0.000004
      4          6           0        0.000012    3.393652    0.000013
      5          6           0        1.246257    2.747292    0.000045
      6          6           0        1.274598    1.356899    0.000045
      7          1           0       -2.157152    3.327996   -0.000042
      8          1           0       -0.000000    4.477890   -0.000012
      9          1           0        2.157159    3.327999    0.000051
     10          6           0        3.686025    0.583110   -0.000028
     11          6           0        1.910676   -0.903087    0.000087
     12          6           0        4.174280   -0.744300   -0.000092
     13          6           0        4.534600    1.665065   -0.000054
     14          6           0        5.539686   -0.999896   -0.000196
     15          6           0        5.922097    1.403199   -0.000170
     16          1           0        4.166669    2.683095    0.000010
     17          6           0        6.398650    0.103091   -0.000243
     18          1           0        5.911014   -2.019933   -0.000245
     19          1           0        6.608002    2.240650   -0.000195
     20          1           0        7.472803   -0.071336   -0.000327
     21          6           0       -3.686070    0.583152   -0.000041
     22          6           0       -1.910663   -0.903088    0.000054
     23          6           0       -4.174216   -0.744301   -0.000063
     24          6           0       -4.534555    1.665015   -0.000052
     25          6           0       -5.539732   -0.999904   -0.000099
     26          6           0       -5.922125    1.403202   -0.000099
     27          1           0       -4.166668    2.683101   -0.000023
     28          6           0       -6.398617    0.103069   -0.000125
     29          1           0       -5.911002   -2.019936   -0.000105
     30          1           0       -6.607998    2.240636   -0.000108
     31          1           0       -7.472807   -0.071348   -0.000153
     32          7           0       -2.300449    0.474461    0.000016
     33          7           0       -3.107575   -1.600467   -0.000035
     34          7           0        2.300453    0.474477    0.000084
     35          7           0        3.107562   -1.600449   -0.000031
     36          6           0        3.189086   -3.027836    0.000008
     37          1           0        3.708754   -3.392733   -0.893824
     38          1           0        3.708312   -3.392740    0.894094
     39          1           0        2.179334   -3.444753   -0.000263
     40          6           0       -3.189073   -3.027833    0.000047
     41          1           0       -3.708241   -3.392730    0.894176
     42          1           0       -3.708806   -3.392756   -0.893744
     43          1           0       -2.179325   -3.444755   -0.000291
     44         27           0        0.000011   -1.211139    0.000146
 ---------------------------------------------------------------------
                    Distance matrix (angstroms):
                    1          2          3          4          5
     1  C    0.000000
     2  C    1.399816   0.000000
     3  C    2.330381   1.390666   0.000000
     4  C    2.615505   2.402686   1.403925   0.000000
     5  C    2.330389   2.878849   2.492528   1.403891   0.000000
     6  C    1.399850   2.549175   2.878881   2.402693   1.390682
     7  H    3.339908   2.159658   1.080245   2.158163   3.452595
     8  H    3.699742   3.371212   2.132645   1.084237   2.132634
     9  H    3.339929   3.957526   3.452616   2.158147   1.080261
    10  C    3.691192   5.020592   5.386205   4.635282   3.261311
    11  C    2.545049   3.905563   4.826132   4.702405   3.710353
    12  C    4.443260   5.839960   6.447756   5.877684   4.556812
    13  C    4.620532   5.817345   5.881298   4.852886   3.461851
    14  C    5.818047   7.210320   7.751811   7.070449   5.698679
    15  C    5.955002   7.196823   7.293289   6.247639   4.865189
    16  H    4.581489   5.600529   5.413320   4.226810   2.921117
    17  C    6.434172   7.774991   8.089288   7.195163   5.791282
    18  H    6.539838   7.939508   8.599600   8.015414   6.669812
    19  H    6.767921   7.931964   7.870596   6.707828   5.385628
    20  H    7.520942   8.863214   9.163344   8.237036   6.834803
    21  C    3.691214   2.532587   3.261305   4.635312   5.386219
    22  C    2.545023   2.347806   3.710345   4.702409   4.826118
    23  C    4.443179   3.580920   4.556759   5.877656   6.447694
    24  C    4.620458   3.274505   3.461811   4.852884   5.881251
    25  C    5.818073   4.872998   5.698706   7.070509   7.751846
    26  C    5.955009   4.647778   4.865201   6.247687   7.293304
    27  H    4.581471   3.181662   2.921103   4.226831   5.413306
    28  C    6.434119   5.275215   5.791249   7.195164   8.089253
    29  H    6.539808   5.735810   6.669793   8.015424   8.599582
    30  H    6.767892   5.406140   5.385612   6.707849   7.870580
    31  H    7.520926   6.360658   6.834798   8.237066   9.163341
    32  N    2.320397   1.353192   2.505401   3.716692   4.212468
    33  N    3.913408   3.479362   4.729422   5.882034   6.152956
    34  N    2.320421   3.682327   4.212471   3.716667   2.505398
    35  N    3.913404   5.286692   6.152939   5.881999   4.729408
    36  C    4.965465   6.257018   7.281788   7.169777   6.093167
    37  H    5.652462   6.942019   7.940468   7.785162   6.675538
    38  H    5.652181   6.941740   7.940229   7.784986   6.675405
    39  H    4.752098   5.914851   7.076449   7.177272   6.261953
    40  C    4.965441   4.784481   6.093152   7.169779   7.281774
    41  H    5.652126   5.411223   6.675378   7.784963   7.940176
    42  H    5.652485   5.411430   6.675551   7.785208   7.940510
    43  H    4.752085   4.886159   6.261947   7.177278   7.076444
    44  Co   1.989286   2.866958   4.149983   4.604791   4.149976
                    6          7          8          9         10
     6  C    0.000000
     7  H    3.957542   0.000000
     8  H    3.371229   2.444496   0.000000
     9  H    2.159664   4.314312   2.444501   0.000000
    10  C    2.532534   6.455782   5.362470   3.141949   0.000000
    11  C    2.347793   5.869352   5.710131   4.238260   2.315307
    12  C    3.580949   7.527991   6.685498   4.544491   1.414359
    13  C    3.274535   6.895280   5.336158   2.901305   1.375029
    14  C    4.872931   8.830173   7.790652   5.492919   2.437615
    15  C    4.647729   8.305366   6.672702   4.228429   2.381714
    16  H    3.181646   6.356619   4.536785   2.110457   2.154287
    17  C    5.275220   9.143400   7.751232   5.328253   2.754769
    18  H    5.735796   9.679652   8.784179   6.533897   3.424385
    19  H    5.406128   8.832341   6.976456   4.581739   3.359373
    20  H    6.360629  10.212321   8.748614   6.309639   3.842914
    21  C    5.020649   3.141936   5.362471   6.455813   7.372095
    22  C    3.905564   4.238258   5.710127   5.869350   5.790656
    23  C    5.839916   4.544464   6.685458   7.527944   7.971537
    24  C    5.817319   2.901302   5.336146   6.895257   8.291469
    25  C    7.210382   5.492956   7.790690   8.830225   9.360583
    26  C    7.196872   4.228457   6.672726   8.305401   9.643085
    27  H    5.600552   2.110460   4.536781   6.356625   8.128637
    28  C    7.774980   5.328243   7.751216   9.143385  10.096061
    29  H    7.939512   6.533893   8.784172   9.679650   9.943781
    30  H    7.931980   4.581744   6.976456   8.832347  10.426615
    31  H    8.863238   6.309653   8.748623  10.212337  11.178007
    32  N    3.682345   2.857131   4.617305   5.292727   5.987460
    33  N    5.286725   5.019269   6.826672   7.211603   7.135896
    34  N    1.353162   5.292714   4.617294   2.857117   1.389824
    35  N    3.479319   7.211573   6.826649   5.019249   2.258882
    36  C    4.784471   8.305351   8.155132   6.439061   3.644980
    37  H    5.411388   8.965261   8.746455   6.955192   4.075134
    38  H    5.411225   8.965013   8.746304   6.955122   4.075210
    39  H    4.886145   8.042092   8.216920   6.772789   4.300442
    40  C    6.257015   6.439055   8.155125   8.305348   7.765687
    41  H    6.941695   6.955118   8.746272   8.964964   8.442871
    42  H    6.942074   6.955203   8.746488   8.965320   8.443326
    43  H    5.914851   6.772788   8.216919   8.042095   7.115197
    44  Co   2.866948   5.025644   5.689029   5.025640   4.099516
                   11         12         13         14         15
    11  C    0.000000
    12  C    2.269166   0.000000
    13  C    3.671564   2.436159   0.000000
    14  C    3.630300   1.389122   2.848195   0.000000
    15  C    4.627143   2.768865   1.411992   2.433331   0.000000
    16  H    4.236768   3.427404   1.082478   3.930597   2.172478
    17  C    4.599380   2.380313   2.431964   1.397998   1.384697
    18  H    4.153318   2.154874   3.933666   1.085524   3.423150
    19  H    5.652252   3.851354   2.151812   3.412102   1.082493
    20  H    5.623973   3.366472   3.412935   2.144567   2.139846
    21  C    5.790723   7.971652   8.291559   9.360588   9.643099
    22  C    3.821339   6.087015   6.938070   7.450977   8.165236
    23  C    6.086964   8.348496   9.035957   9.717264  10.322174
    24  C    6.938023   9.035963   9.069155  10.420752  10.459929
    25  C    7.451037   9.717374  10.420855  11.079417  11.711038
    26  C    8.165277  10.322266  10.460003  11.711020  11.844222
    27  H    7.056547   9.017677   8.760619  10.381607  10.169627
    28  C    8.369988  10.606799  11.044232  11.989145  12.389121
    29  H    7.901013  10.165636  11.076544  11.496031  12.318282
    30  H    9.080243  11.187823  11.157454  12.572480  12.558048
    31  H    9.420274  11.666513  12.132310  13.045580  13.475821
    32  N    4.430713   6.588437   6.937971   7.977559   8.274830
    33  N    5.066477   7.332015   8.310628   8.668091   9.516143
    34  N    1.431646   2.235318   2.531582   3.558989   3.738827
    35  N    1.385225   1.367801   3.563708   2.505173   4.116249
    36  C    2.479695   2.486994   4.881980   3.104490   5.206094
    37  H    3.198515   2.833667   5.202131   3.142698   5.357095
    38  H    3.198299   2.833890   5.202274   3.143150   5.357386
    39  H    2.555826   3.357419   5.626502   4.155634   6.124616
    40  C    5.524671   7.709313   9.037611   8.961237  10.131508
    41  H    6.210471   8.363494   9.712124   9.594253  10.795563
    42  H    6.210955   8.363969   9.712568   9.594728  10.796015
    43  H    4.815411   6.903677   8.437241   8.096941   9.441170
    44  Co   1.935339   4.200293   5.369827   5.543701   6.473474
                   16         17         18         19         20
    16  H    0.000000
    17  C    3.411475   0.000000
    18  H    5.016096   2.178306   0.000000
    19  H    2.481102   2.147787   4.317217   0.000000
    20  H    4.303187   1.088223   2.497242   2.468433   0.000000
    21  C    8.128670  10.096140   9.943846  10.426659  11.178051
    22  C    7.056534   8.370010   7.901011   9.080239   9.420257
    23  C    9.017616  10.606770  10.165584  11.187768  11.666445
    24  C    8.760581  11.044211  11.076496  11.157416  12.132254
    25  C   10.381652  11.989227  11.496088  12.572535  13.045624
    26  C   10.169655  12.389180  12.318321  12.558081  13.475844
    27  H    8.333336  10.875771  11.121070  10.783750  11.960945
    28  C   10.875743  12.797267  12.491363  13.181100  13.872517
    29  H   11.121058  12.491388  11.822016  13.224147  13.524913
    30  H   10.783748  13.181123  13.224149  13.216000  14.269344
    31  H   11.960951  13.872554  13.524927  14.269356  14.945611
    32  N    6.833863   8.707023   8.581966   9.081846   9.788481
    33  N    8.441773   9.657662   9.028339  10.447326  10.690307
    34  N    2.891497   4.114990   4.388420   4.655571   5.201069
    35  N    4.412534   3.705848   2.834663   5.196838   4.625313
    36  C    5.793997   4.483748   2.902544   6.280599   5.204914
    37  H    6.158272   4.500535   2.744634   6.398377   5.098832
    38  H    6.158348   4.500954   2.745239   6.398675   5.099325
    39  H    6.442052   5.512697   3.994440   7.206727   6.277003
    40  C    9.312445  10.085986   9.155734  11.123830  11.064199
    41  H    9.986460  10.731728   9.757798  11.788119  11.698186
    42  H    9.986884  10.732192   9.758274  11.788563  11.698650
    43  H    8.821688   9.282718   8.214846  10.466181  10.224653
    44  Co   5.703165   6.532211   5.966080   7.455226   7.559218
                   21         22         23         24         25
    21  C    0.000000
    22  C    2.315379   0.000000
    23  C    1.414361   2.269116   0.000000
    24  C    1.374902   3.671507   2.436114   0.000000
    25  C    2.437647   3.630360   1.389232   2.848187   0.000000
    26  C    2.381685   4.627181   2.768927   1.412054   2.433340
    27  H    2.154243   4.236780   3.427410   1.082515   3.930627
    28  C    2.754703   4.599357   2.380335   2.431954   1.397939
    29  H    3.424381   4.153319   2.154917   3.933633   1.085498
    30  H    3.359303   5.652252   3.851382   2.151861   3.412080
    31  H    3.842883   5.623988   3.366537   3.412958   2.144527
    32  N    1.389877   1.431633   2.235259   2.531531   3.559031
    33  N    2.258948   1.385257   1.367751   3.563657   2.505207
    34  N    5.987510   4.430709   6.588381   6.937919   7.977613
    35  N    7.135933   5.066448   7.331935   8.310548   8.668122
    36  C    7.765758   5.524671   7.709263   9.037560   8.961293
    37  H    8.443337   6.210893   8.363864   9.712456   9.594731
    38  H    8.442990   6.210520   8.363492   9.712119   9.594350
    39  H    7.115264   4.815406   6.903625   8.437182   8.096991
    40  C    3.645026   2.479692   2.486971   4.881920   3.104527
    41  H    4.075261   3.198290   2.833897   5.202233   3.143200
    42  H    4.075176   3.198537   2.833652   5.202076   3.142711
    43  H    4.300502   2.555827   3.357386   5.626443   4.155675
    44  Co   4.099594   1.935348   4.200251   5.369782   5.543769
                   26         27         28         29         30
    26  C    0.000000
    27  H    2.172504   0.000000
    28  C    1.384698   3.411475   0.000000
    29  H    3.423156   5.016099   2.178283   0.000000
    30  H    1.082459   2.481102   2.147797   4.317206   0.000000
    31  H    2.139839   4.303202   1.088258   2.497245   2.468433
    32  N    3.738863   2.891515   4.114961   4.388405   4.655572
    33  N    4.116275   4.412554   3.705805   2.834635   5.196829
    34  N    8.274861   6.833862   8.706995   8.581963   9.081840
    35  N    9.516153   8.441754   9.657609   9.028314  10.447298
    36  C   10.131548   9.312460  10.085961   9.155734  11.123832
    37  H   10.795998   9.986837  10.732114   9.758228  11.788509
    38  H   10.795645   9.986521  10.731744   9.757837  11.788163
    39  H    9.441202   8.821697   9.282687   8.214842  10.466176
    40  C    5.206116   5.794001   4.483717   2.902542   6.280590
    41  H    5.357422   6.158366   4.500945   2.745261   6.398683
    42  H    5.357107   6.158280   4.500492   2.744612   6.398359
    43  H    6.124642   6.442061   5.512666   3.994437   7.206720
    44  Co   6.473521   5.703185   6.532196   5.966090   7.455235
                   31         32         33         34         35
    31  H    0.000000
    32  N    5.201076   0.000000
    33  N    4.625306   2.226383   0.000000
    34  N    9.788491   4.600903   5.792423   0.000000
    35  N   10.690293   5.792395   6.215137   2.226374   0.000000
    36  C   11.064212   6.511611   6.456417   3.613290   1.429713
    37  H   11.698614   7.201713   7.104465   4.211615   2.091072
    38  H   11.698237   7.201377   7.104085   4.211495   2.091093
    39  H   10.224661   5.952201   5.599357   3.921102   2.064720
    40  C    5.204919   3.613269   1.429690   6.511611   6.456395
    41  H    5.099350   4.211480   2.091081   7.201326   7.104016
    42  H    5.098820   4.211608   2.091050   7.201779   7.104502
    43  H    6.277008   3.921087   2.064715   5.952209   5.599342
    44  Co   7.559242   2.851905   3.131880   2.851900   3.131842
                   36         37         38         39         40
    36  C    0.000000
    37  H    1.096422   0.000000
    38  H    1.096421   1.787917   0.000000
    39  H    1.092438   1.772085   1.772104   0.000000
    40  C    6.378159   6.965068   6.964654   5.384572   0.000000
    41  H    6.964610   7.629466   7.416553   5.955355   1.096427
    42  H    6.965118   7.417560   7.629548   5.955770   1.096427
    43  H    5.384576   5.955718   5.955409   4.358658   1.092436
    44  Co   3.670230   4.394691   4.394317   3.120654   3.670237
                   41         42         43         44
    41  H    0.000000
    42  H    1.787920   0.000000
    43  H    1.772107   1.772082   0.000000
    44  Co   4.394287   4.394749   3.120664   0.000000
 Symmetry turned off by external request.
 Stoichiometry    C22H17CoN4
 Framework group  C1[X(C22H17CoN4)]
 Deg. of freedom   126
 Full point group                 C1      NOp   1
 Rotational constants (GHZ):           0.4665249           0.1008968           0.0830436
 General basis read from cards:  (5D, 7F)
 ======================================================================================================
                                       Pseudopotential Parameters
 ======================================================================================================
  Center     Atomic      Valence      Angular      Power
  Number     Number     Electrons     Momentum     of R      Exponent        Coefficient   SO-Coeffient
 ======================================================================================================
    1          6
                                   No pseudopotential on this center.
    2          6
                                   No pseudopotential on this center.
    3          6
                                   No pseudopotential on this center.
    4          6
                                   No pseudopotential on this center.
    5          6
                                   No pseudopotential on this center.
    6          6
                                   No pseudopotential on this center.
    7          1
                                   No pseudopotential on this center.
    8          1
                                   No pseudopotential on this center.
    9          1
                                   No pseudopotential on this center.
   10          6
                                   No pseudopotential on this center.
   11          6
                                   No pseudopotential on this center.
   12          6
                                   No pseudopotential on this center.
   13          6
                                   No pseudopotential on this center.
   14          6
                                   No pseudopotential on this center.
   15          6
                                   No pseudopotential on this center.
   16          1
                                   No pseudopotential on this center.
   17          6
                                   No pseudopotential on this center.
   18          1
                                   No pseudopotential on this center.
   19          1
                                   No pseudopotential on this center.
   20          1
                                   No pseudopotential on this center.
   21          6
                                   No pseudopotential on this center.
   22          6
                                   No pseudopotential on this center.
   23          6
                                   No pseudopotential on this center.
   24          6
                                   No pseudopotential on this center.
   25          6
                                   No pseudopotential on this center.
   26          6
                                   No pseudopotential on this center.
   27          1
                                   No pseudopotential on this center.
   28          6
                                   No pseudopotential on this center.
   29          1
                                   No pseudopotential on this center.
   30          1
                                   No pseudopotential on this center.
   31          1
                                   No pseudopotential on this center.
   32          7
                                   No pseudopotential on this center.
   33          7
                                   No pseudopotential on this center.
   34          7
                                   No pseudopotential on this center.
   35          7
                                   No pseudopotential on this center.
   36          6
                                   No pseudopotential on this center.
   37          1
                                   No pseudopotential on this center.
   38          1
                                   No pseudopotential on this center.
   39          1
                                   No pseudopotential on this center.
   40          6
                                   No pseudopotential on this center.
   41          1
                                   No pseudopotential on this center.
   42          1
                                   No pseudopotential on this center.
   43          1
                                   No pseudopotential on this center.
   44         27           17
                                      F and up 
                                                     2        1.0000000        0.00000000    0.00000000
                                      S - F
                                                     2       23.6600000      283.96056600    0.00000000
                                                     2       10.6100000       47.15684600    0.00000000
                                      P - F
                                                     2       25.0400000      182.21223600    0.00000000
                                                     2       10.4400000       35.23335200    0.00000000
                                      D - F
                                                     2       29.5400000      -26.47533300    0.00000000
                                                     2       10.1800000       -1.82578700    0.00000000
 ======================================================================================================
   441 basis functions,   871 primitive gaussians,   473 cartesian basis functions
    97 alpha electrons       97 beta electrons
       nuclear repulsion energy      2491.5673106813 Hartrees.
 NAtoms=   44 NActive=   44 NUniq=   44 SFac= 1.00D+00 NAtFMM=   60 NAOKFM=F Big=F
 Integral buffers will be    131072 words long.
 Raffenetti 2 integral format.
 Two-electron integral symmetry is turned off.
 Nuclear repulsion after empirical dispersion term =     2491.5081345793 Hartrees.
 One-electron integrals computed using PRISM.
   1 Symmetry operations used in ECPInt.
 ECPInt:  NShTT=   11781 NPrTT=   71406 LenC2=    9534 LenP2D=   32091.
 LDataN:  DoStor=T MaxTD1= 6 Len=  172
 NBasis=   441 RedAO= T EigKep=  3.23D-04  NBF=   441
 NBsUse=   441 1.00D-06 EigRej= -1.00D+00 NBFU=   441
 Initial guess from the checkpoint file:  "a.chk"
 B after Tr=     0.000000   -0.002086    0.000008
         Rot=    1.000000    0.000002    0.000000   -0.000000 Ang=   0.00 deg.
 Initial guess <Sx>= 0.0000 <Sy>= 0.0000 <Sz>= 0.0000 <S**2>= 0.0000 S= 0.0000
 Requested convergence on RMS density matrix=1.00D-08 within  64 cycles.
 Requested convergence on MAX density matrix=1.00D-06.
 Requested convergence on             energy=1.00D-06.
 No special actions if energy rises.
 EnCoef did     3 forward-backward iterations
 EnCoef did     1 forward-backward iterations
 SCF Done:  E(UPBE1PBE) =  -1212.12391676     A.U. after   20 cycles
            NFock= 20  Conv=0.40D-08     -V/T= 2.0551
 <Sx>= 0.0000 <Sy>= 0.0000 <Sz>= 0.0000 <S**2>= 0.0000 S= 0.0000
 <L.S>=  0.00000000000    
 Annihilation of the first spin contaminant:
 S**2 before annihilation     0.0000,   after     0.0000
 QCSCF skips out because SCF is already converged.

 **********************************************************************

            Population analysis using the SCF Density.

 **********************************************************************

 Alpha  occ. eigenvalues --  -14.45804 -14.45804 -14.45042 -14.45042 -10.28174
 Alpha  occ. eigenvalues --  -10.28174 -10.27541 -10.27540 -10.27409 -10.27408
 Alpha  occ. eigenvalues --  -10.27340 -10.27339 -10.24996 -10.24995 -10.24098
 Alpha  occ. eigenvalues --  -10.24098 -10.23863 -10.23863 -10.23416 -10.23416
 Alpha  occ. eigenvalues --  -10.23359 -10.23359 -10.21286 -10.21282 -10.21013
 Alpha  occ. eigenvalues --  -10.18929  -3.83200  -2.34940  -2.34874  -2.31161
 Alpha  occ. eigenvalues --   -1.06030  -1.05962  -0.97173  -0.96831  -0.88254
 Alpha  occ. eigenvalues --   -0.87998  -0.84963  -0.80379  -0.78805  -0.77970
 Alpha  occ. eigenvalues --   -0.77894  -0.75614  -0.75076  -0.72994  -0.71816
 Alpha  occ. eigenvalues --   -0.66584  -0.65291  -0.64612  -0.64082  -0.62677
 Alpha  occ. eigenvalues --   -0.61449  -0.58870  -0.57309  -0.56632  -0.54110
 Alpha  occ. eigenvalues --   -0.53209  -0.51953  -0.49800  -0.49743  -0.49054
 Alpha  occ. eigenvalues --   -0.48224  -0.47900  -0.47406  -0.46748  -0.46242
 Alpha  occ. eigenvalues --   -0.45770  -0.45278  -0.44995  -0.44667  -0.44128
 Alpha  occ. eigenvalues --   -0.42459  -0.42030  -0.41074  -0.38589  -0.38292
 Alpha  occ. eigenvalues --   -0.38275  -0.37689  -0.36891  -0.36823  -0.36599
 Alpha  occ. eigenvalues --   -0.35309  -0.34567  -0.34478  -0.33948  -0.31596
 Alpha  occ. eigenvalues --   -0.28926  -0.26709  -0.25968  -0.24732  -0.24385
 Alpha  occ. eigenvalues --   -0.22721  -0.21287  -0.20608  -0.20308  -0.16280
 Alpha  occ. eigenvalues --   -0.15380  -0.14955
 Alpha virt. eigenvalues --   -0.04554  -0.02412  -0.00626   0.00081   0.00917
 Alpha virt. eigenvalues --    0.01348   0.02073   0.03396   0.05413   0.05895
 Alpha virt. eigenvalues --    0.06398   0.07370   0.09149   0.09361   0.10132
 Alpha virt. eigenvalues --    0.10658   0.12625   0.13111   0.14232   0.14245
 Alpha virt. eigenvalues --    0.15357   0.15767   0.15905   0.16091   0.16531
 Alpha virt. eigenvalues --    0.16905   0.17257   0.17566   0.17804   0.18392
 Alpha virt. eigenvalues --    0.19299   0.19358   0.19779   0.20411   0.22232
 Alpha virt. eigenvalues --    0.22271   0.22694   0.22877   0.23070   0.24028
 Alpha virt. eigenvalues --    0.26041   0.26235   0.26669   0.27824   0.27947
 Alpha virt. eigenvalues --    0.28548   0.29445   0.29667   0.31052   0.31250
 Alpha virt. eigenvalues --    0.31944   0.33383   0.33980   0.34542   0.34744
 Alpha virt. eigenvalues --    0.36403   0.37774   0.38374   0.39733   0.39799
 Alpha virt. eigenvalues --    0.41441   0.43158   0.44665   0.45535   0.46713
 Alpha virt. eigenvalues --    0.47709   0.47963   0.50599   0.51413   0.52062
 Alpha virt. eigenvalues --    0.52285   0.53575   0.53789   0.56024   0.56100
 Alpha virt. eigenvalues --    0.56937   0.56965   0.57154   0.58063   0.58565
 Alpha virt. eigenvalues --    0.58700   0.59095   0.59375   0.60190   0.61487
 Alpha virt. eigenvalues --    0.61539   0.61975   0.63010   0.63229   0.63342
 Alpha virt. eigenvalues --    0.63401   0.63472   0.63477   0.64329   0.64491
 Alpha virt. eigenvalues --    0.65282   0.66171   0.66519   0.67079   0.67155
 Alpha virt. eigenvalues --    0.67724   0.68439   0.68491   0.68852   0.70943
 Alpha virt. eigenvalues --    0.72365   0.72647   0.74161   0.76009   0.76319
 Alpha virt. eigenvalues --    0.76706   0.77298   0.78408   0.80062   0.80218
 Alpha virt. eigenvalues --    0.81176   0.81881   0.82654   0.83745   0.83916
 Alpha virt. eigenvalues --    0.84121   0.84495   0.85169   0.86376   0.86963
 Alpha virt. eigenvalues --    0.87157   0.87401   0.87812   0.89997   0.90582
 Alpha virt. eigenvalues --    0.90607   0.91665   0.91684   0.92493   0.92920
 Alpha virt. eigenvalues --    0.93629   0.93990   0.95352   0.95842   0.96034
 Alpha virt. eigenvalues --    0.96103   0.97304   0.98049   0.98079   0.98394
 Alpha virt. eigenvalues --    0.98412   1.00183   1.00355   1.01900   1.02041
 Alpha virt. eigenvalues --    1.02979   1.03769   1.04175   1.06496   1.07394
 Alpha virt. eigenvalues --    1.09512   1.09994   1.11010   1.11244   1.14135
 Alpha virt. eigenvalues --    1.15221   1.15422   1.16444   1.16856   1.18583
 Alpha virt. eigenvalues --    1.18611   1.19291   1.20622   1.23807   1.24108
 Alpha virt. eigenvalues --    1.24727   1.25995   1.27214   1.27232   1.28485
 Alpha virt. eigenvalues --    1.29274   1.29589   1.30496   1.33382   1.33400
 Alpha virt. eigenvalues --    1.33882   1.36082   1.36279   1.37318   1.39155
 Alpha virt. eigenvalues --    1.40604   1.41754   1.41980   1.42770   1.42990
 Alpha virt. eigenvalues --    1.44937   1.45170   1.45400   1.46785   1.47882
 Alpha virt. eigenvalues --    1.48033   1.49274   1.49983   1.50026   1.51057
 Alpha virt. eigenvalues --    1.51506   1.51632   1.53553   1.55422   1.57640
 Alpha virt. eigenvalues --    1.58040   1.60180   1.61707   1.66080   1.66111
 Alpha virt. eigenvalues --    1.66183   1.70687   1.72690   1.73089   1.76308
 Alpha virt. eigenvalues --    1.77732   1.78789   1.80050   1.80339   1.82365
 Alpha virt. eigenvalues --    1.82977   1.85998   1.87273   1.87347   1.87553
 Alpha virt. eigenvalues --    1.88643   1.88850   1.90352   1.91428   1.92339
 Alpha virt. eigenvalues --    1.93733   1.95358   1.95429   1.96789   1.97469
 Alpha virt. eigenvalues --    1.98241   1.98354   1.99091   1.99160   1.99561
 Alpha virt. eigenvalues --    1.99904   2.00430   2.02026   2.02396   2.03720
 Alpha virt. eigenvalues --    2.06624   2.07062   2.07646   2.10006   2.10621
 Alpha virt. eigenvalues --    2.12710   2.13061   2.14407   2.15502   2.15627
 Alpha virt. eigenvalues --    2.16371   2.17023   2.17047   2.19217   2.20180
 Alpha virt. eigenvalues --    2.20652   2.21576   2.21635   2.22419   2.23743
 Alpha virt. eigenvalues --    2.24848   2.25087   2.25779   2.26868   2.27814
 Alpha virt. eigenvalues --    2.28195   2.28493   2.28500   2.28514   2.29332
 Alpha virt. eigenvalues --    2.33421   2.35332   2.38985   2.40176   2.40619
 Alpha virt. eigenvalues --    2.40825   2.43888   2.44554   2.46968   2.47374
 Alpha virt. eigenvalues --    2.52013   2.52234   2.52339   2.57438   2.58887
 Alpha virt. eigenvalues --    2.59366   2.59989   2.60669   2.60799   2.62582
 Alpha virt. eigenvalues --    2.64345   2.65055   2.66575   2.68614   2.69932
 Alpha virt. eigenvalues --    2.70085   2.70804   2.72583   2.75275   2.75343
 Alpha virt. eigenvalues --    2.76026   2.76076   2.77854   2.79065   2.80690
 Alpha virt. eigenvalues --    2.82227   2.83872   2.86255   2.88422   2.88614
 Alpha virt. eigenvalues --    2.93698   2.94717   2.98200   2.98288   2.99860
 Alpha virt. eigenvalues --    3.01504   3.06551   3.07526   3.16242   3.20023
 Alpha virt. eigenvalues --    3.20195   3.29866   3.40748   3.47143   3.47571
 Alpha virt. eigenvalues --    3.53000   3.53199   3.62258   5.66696   5.67121
 Alpha virt. eigenvalues --    5.67731   5.68564   5.68789   5.69866   5.72071
 Alpha virt. eigenvalues --   45.82015  45.98318  46.03133  63.11861
  Beta  occ. eigenvalues --  -14.45804 -14.45804 -14.45042 -14.45042 -10.28174
  Beta  occ. eigenvalues --  -10.28174 -10.27541 -10.27540 -10.27409 -10.27408
  Beta  occ. eigenvalues --  -10.27340 -10.27339 -10.24996 -10.24995 -10.24098
  Beta  occ. eigenvalues --  -10.24098 -10.23863 -10.23863 -10.23416 -10.23416
  Beta  occ. eigenvalues --  -10.23359 -10.23359 -10.21286 -10.21282 -10.21013
  Beta  occ. eigenvalues --  -10.18929  -3.83200  -2.34940  -2.34874  -2.31161
  Beta  occ. eigenvalues --   -1.06030  -1.05962  -0.97173  -0.96831  -0.88254
  Beta  occ. eigenvalues --   -0.87998  -0.84963  -0.80379  -0.78805  -0.77970
  Beta  occ. eigenvalues --   -0.77894  -0.75614  -0.75076  -0.72994  -0.71816
  Beta  occ. eigenvalues --   -0.66584  -0.65291  -0.64612  -0.64082  -0.62677
  Beta  occ. eigenvalues --   -0.61449  -0.58870  -0.57309  -0.56632  -0.54110
  Beta  occ. eigenvalues --   -0.53209  -0.51953  -0.49800  -0.49743  -0.49054
  Beta  occ. eigenvalues --   -0.48224  -0.47900  -0.47406  -0.46748  -0.46242
  Beta  occ. eigenvalues --   -0.45770  -0.45278  -0.44995  -0.44667  -0.44128
  Beta  occ. eigenvalues --   -0.42459  -0.42030  -0.41074  -0.38589  -0.38292
  Beta  occ. eigenvalues --   -0.38275  -0.37689  -0.36891  -0.36823  -0.36599
  Beta  occ. eigenvalues --   -0.35309  -0.34567  -0.34478  -0.33948  -0.31596
  Beta  occ. eigenvalues --   -0.28926  -0.26709  -0.25968  -0.24732  -0.24385
  Beta  occ. eigenvalues --   -0.22721  -0.21287  -0.20608  -0.20308  -0.16280
  Beta  occ. eigenvalues --   -0.15380  -0.14955
  Beta virt. eigenvalues --   -0.04554  -0.02412  -0.00626   0.00081   0.00917
  Beta virt. eigenvalues --    0.01348   0.02073   0.03396   0.05413   0.05895
  Beta virt. eigenvalues --    0.06398   0.07370   0.09149   0.09361   0.10132
  Beta virt. eigenvalues --    0.10658   0.12625   0.13111   0.14232   0.14245
  Beta virt. eigenvalues --    0.15357   0.15767   0.15905   0.16091   0.16531
  Beta virt. eigenvalues --    0.16905   0.17257   0.17566   0.17804   0.18392
  Beta virt. eigenvalues --    0.19299   0.19358   0.19779   0.20411   0.22232
  Beta virt. eigenvalues --    0.22271   0.22694   0.22877   0.23070   0.24028
  Beta virt. eigenvalues --    0.26041   0.26234   0.26669   0.27824   0.27947
  Beta virt. eigenvalues --    0.28548   0.29445   0.29667   0.31052   0.31250
  Beta virt. eigenvalues --    0.31944   0.33383   0.33980   0.34542   0.34744
  Beta virt. eigenvalues --    0.36403   0.37774   0.38374   0.39733   0.39799
  Beta virt. eigenvalues --    0.41441   0.43158   0.44665   0.45535   0.46713
  Beta virt. eigenvalues --    0.47709   0.47963   0.50599   0.51413   0.52062
  Beta virt. eigenvalues --    0.52285   0.53575   0.53789   0.56024   0.56100
  Beta virt. eigenvalues --    0.56937   0.56965   0.57154   0.58063   0.58565
  Beta virt. eigenvalues --    0.58700   0.59095   0.59375   0.60190   0.61487
  Beta virt. eigenvalues --    0.61539   0.61975   0.63010   0.63229   0.63342
  Beta virt. eigenvalues --    0.63401   0.63472   0.63477   0.64329   0.64491
  Beta virt. eigenvalues --    0.65282   0.66171   0.66519   0.67079   0.67155
  Beta virt. eigenvalues --    0.67724   0.68439   0.68491   0.68852   0.70943
  Beta virt. eigenvalues --    0.72365   0.72647   0.74161   0.76009   0.76319
  Beta virt. eigenvalues --    0.76706   0.77298   0.78408   0.80062   0.80218
  Beta virt. eigenvalues --    0.81176   0.81881   0.82654   0.83745   0.83916
  Beta virt. eigenvalues --    0.84121   0.84495   0.85169   0.86376   0.86963
  Beta virt. eigenvalues --    0.87157   0.87401   0.87812   0.89997   0.90582
  Beta virt. eigenvalues --    0.90607   0.91665   0.91684   0.92493   0.92920
  Beta virt. eigenvalues --    0.93629   0.93990   0.95352   0.95842   0.96034
  Beta virt. eigenvalues --    0.96103   0.97304   0.98049   0.98079   0.98394
  Beta virt. eigenvalues --    0.98412   1.00183   1.00355   1.01900   1.02041
  Beta virt. eigenvalues --    1.02979   1.03769   1.04175   1.06496   1.07394
  Beta virt. eigenvalues --    1.09512   1.09994   1.11010   1.11244   1.14135
  Beta virt. eigenvalues --    1.15221   1.15422   1.16444   1.16856   1.18583
  Beta virt. eigenvalues --    1.18611   1.19291   1.20622   1.23807   1.24108
  Beta virt. eigenvalues --    1.24727   1.25995   1.27214   1.27232   1.28485
  Beta virt. eigenvalues --    1.29274   1.29589   1.30496   1.33382   1.33400
  Beta virt. eigenvalues --    1.33882   1.36082   1.36279   1.37318   1.39155
  Beta virt. eigenvalues --    1.40604   1.41754   1.41980   1.42770   1.42990
  Beta virt. eigenvalues --    1.44937   1.45170   1.45400   1.46785   1.47882
  Beta virt. eigenvalues --    1.48033   1.49274   1.49983   1.50026   1.51057
  Beta virt. eigenvalues --    1.51506   1.51632   1.53553   1.55422   1.57640
  Beta virt. eigenvalues --    1.58040   1.60180   1.61707   1.66080   1.66111
  Beta virt. eigenvalues --    1.66183   1.70687   1.72690   1.73089   1.76308
  Beta virt. eigenvalues --    1.77732   1.78789   1.80050   1.80339   1.82365
  Beta virt. eigenvalues --    1.82977   1.85998   1.87273   1.87347   1.87553
  Beta virt. eigenvalues --    1.88643   1.88850   1.90352   1.91428   1.92339
  Beta virt. eigenvalues --    1.93733   1.95358   1.95429   1.96789   1.97469
  Beta virt. eigenvalues --    1.98241   1.98354   1.99091   1.99160   1.99561
  Beta virt. eigenvalues --    1.99904   2.00430   2.02026   2.02396   2.03720
  Beta virt. eigenvalues --    2.06624   2.07062   2.07646   2.10006   2.10621
  Beta virt. eigenvalues --    2.12710   2.13061   2.14407   2.15502   2.15627
  Beta virt. eigenvalues --    2.16371   2.17023   2.17047   2.19217   2.20180
  Beta virt. eigenvalues --    2.20652   2.21576   2.21635   2.22419   2.23743
  Beta virt. eigenvalues --    2.24848   2.25087   2.25779   2.26868   2.27814
  Beta virt. eigenvalues --    2.28195   2.28493   2.28500   2.28514   2.29332
  Beta virt. eigenvalues --    2.33421   2.35332   2.38985   2.40176   2.40619
  Beta virt. eigenvalues --    2.40825   2.43888   2.44554   2.46968   2.47374
  Beta virt. eigenvalues --    2.52013   2.52234   2.52339   2.57438   2.58887
  Beta virt. eigenvalues --    2.59366   2.59989   2.60669   2.60799   2.62582
  Beta virt. eigenvalues --    2.64345   2.65055   2.66575   2.68614   2.69932
  Beta virt. eigenvalues --    2.70085   2.70804   2.72583   2.75275   2.75343
  Beta virt. eigenvalues --    2.76026   2.76076   2.77854   2.79065   2.80690
  Beta virt. eigenvalues --    2.82227   2.83872   2.86255   2.88422   2.88614
  Beta virt. eigenvalues --    2.93698   2.94717   2.98200   2.98288   2.99860
  Beta virt. eigenvalues --    3.01504   3.06551   3.07526   3.16242   3.20023
  Beta virt. eigenvalues --    3.20195   3.29866   3.40748   3.47143   3.47571
  Beta virt. eigenvalues --    3.53000   3.53199   3.62258   5.66696   5.67121
  Beta virt. eigenvalues --    5.67731   5.68564   5.68789   5.69866   5.72071
  Beta virt. eigenvalues --   45.82015  45.98318  46.03133  63.11861
          Condensed to atoms (all electrons):
               1          2          3          4          5          6
     1  C    5.116619   0.519388  -0.063995  -0.057911  -0.063993   0.519371
     2  C    0.519388   4.631762   0.525684  -0.014320  -0.040425  -0.018441
     3  C   -0.063995   0.525684   5.045163   0.534366  -0.033559  -0.040424
     4  C   -0.057911  -0.014320   0.534366   4.911049   0.534383  -0.014321
     5  C   -0.063993  -0.040425  -0.033559   0.534383   5.045133   0.525681
     6  C    0.519371  -0.018441  -0.040424  -0.014321   0.525681   4.631809
     7  H    0.006127  -0.040407   0.341932  -0.040175   0.004009   0.000820
     8  H    0.001545   0.002610  -0.036219   0.365242  -0.036218   0.002610
     9  H    0.006127   0.000820   0.004009  -0.040176   0.341929  -0.040408
    10  C    0.006250  -0.000032   0.000003   0.000133  -0.005484  -0.046865
    11  C    0.006004   0.002407  -0.000056   0.000030   0.003232  -0.066022
    12  C   -0.000689   0.000002  -0.000000   0.000001   0.000105   0.007340
    13  C    0.000137   0.000001  -0.000001   0.000050   0.002268  -0.003683
    14  C    0.000002  -0.000000   0.000000  -0.000000   0.000003  -0.000023
    15  C    0.000002  -0.000000   0.000000  -0.000001   0.000080   0.000066
    16  H   -0.000027   0.000000   0.000001   0.000097   0.000145   0.000752
    17  C    0.000000   0.000000   0.000000   0.000000  -0.000001  -0.000004
    18  H   -0.000000   0.000000   0.000000   0.000000  -0.000000   0.000002
    19  H   -0.000000   0.000000  -0.000000   0.000000   0.000001  -0.000003
    20  H    0.000000  -0.000000   0.000000  -0.000000  -0.000000  -0.000000
    21  C    0.006250  -0.046857  -0.005485   0.000133   0.000003  -0.000032
    22  C    0.006004  -0.066021   0.003233   0.000030  -0.000056   0.002406
    23  C   -0.000689   0.007342   0.000106   0.000001  -0.000000   0.000002
    24  C    0.000137  -0.003685   0.002268   0.000050  -0.000001   0.000001
    25  C    0.000002  -0.000023   0.000003  -0.000000   0.000000  -0.000000
    26  C    0.000002   0.000066   0.000080  -0.000001   0.000000  -0.000000
    27  H   -0.000027   0.000753   0.000145   0.000097   0.000001   0.000000
    28  C    0.000000  -0.000004  -0.000001   0.000000   0.000000   0.000000
    29  H   -0.000000   0.000002  -0.000000   0.000000   0.000000   0.000000
    30  H   -0.000000  -0.000003   0.000001   0.000000  -0.000000   0.000000
    31  H    0.000000  -0.000000  -0.000000  -0.000000   0.000000  -0.000000
    32  N   -0.037812   0.247407  -0.076182   0.004684   0.000195   0.006262
    33  N    0.001858   0.006128  -0.000158   0.000002   0.000000  -0.000038
    34  N   -0.037809   0.006261   0.000195   0.004684  -0.076178   0.247413
    35  N    0.001858  -0.000038   0.000000   0.000002  -0.000158   0.006129
    36  C   -0.000013   0.000000   0.000000  -0.000000   0.000002  -0.000036
    37  H   -0.000001  -0.000000   0.000000   0.000000  -0.000000   0.000004
    38  H   -0.000001  -0.000000   0.000000   0.000000  -0.000000   0.000004
    39  H   -0.000014   0.000001   0.000000  -0.000000   0.000000  -0.000008
    40  C   -0.000013  -0.000036   0.000002  -0.000000   0.000000   0.000000
    41  H   -0.000001   0.000004  -0.000000   0.000000   0.000000  -0.000000
    42  H   -0.000001   0.000004  -0.000000   0.000000   0.000000  -0.000000
    43  H   -0.000014  -0.000008   0.000000  -0.000000   0.000000   0.000001
    44  Co   0.255593  -0.062945   0.006569   0.001970   0.006570  -0.062948
               7          8          9         10         11         12
     1  C    0.006127   0.001545   0.006127   0.006250   0.006004  -0.000689
     2  C   -0.040407   0.002610   0.000820  -0.000032   0.002407   0.000002
     3  C    0.341932  -0.036219   0.004009   0.000003  -0.000056  -0.000000
     4  C   -0.040175   0.365242  -0.040176   0.000133   0.000030   0.000001
     5  C    0.004009  -0.036218   0.341929  -0.005484   0.003232   0.000105
     6  C    0.000820   0.002610  -0.040408  -0.046865  -0.066022   0.007340
     7  H    0.572602  -0.004260  -0.000093  -0.000000  -0.000000   0.000000
     8  H   -0.004260   0.553836  -0.004261  -0.000003   0.000001  -0.000000
     9  H   -0.000093  -0.004261   0.572608   0.000381  -0.000185  -0.000043
    10  C   -0.000000  -0.000003   0.000381   4.639386  -0.067190   0.514630
    11  C   -0.000000   0.000001  -0.000185  -0.067190   4.804194  -0.054911
    12  C    0.000000  -0.000000  -0.000043   0.514630  -0.054911   4.665065
    13  C   -0.000000   0.000002  -0.000322   0.539137   0.004502  -0.057066
    14  C   -0.000000   0.000000  -0.000000  -0.048941   0.004887   0.533209
    15  C   -0.000000   0.000000   0.000126  -0.005832  -0.000055  -0.038008
    16  H    0.000000  -0.000011   0.006462  -0.032938  -0.000152   0.003699
    17  C    0.000000  -0.000000   0.000001  -0.039451  -0.000055  -0.009216
    18  H    0.000000  -0.000000  -0.000000   0.004003  -0.000215  -0.038012
    19  H    0.000000   0.000000  -0.000008   0.001879   0.000003   0.000941
    20  H   -0.000000  -0.000000   0.000000   0.000900   0.000003   0.002386
    21  C    0.000381  -0.000003  -0.000000  -0.000000  -0.000007   0.000000
    22  C   -0.000185   0.000001  -0.000000  -0.000007  -0.014028  -0.000002
    23  C   -0.000043  -0.000000   0.000000   0.000000  -0.000002  -0.000000
    24  C   -0.000320   0.000002  -0.000000   0.000000   0.000000  -0.000000
    25  C   -0.000000   0.000000  -0.000000  -0.000000   0.000000   0.000000
    26  C    0.000126   0.000000  -0.000000  -0.000000  -0.000000   0.000000
    27  H    0.006462  -0.000011   0.000000   0.000000   0.000000  -0.000000
    28  C    0.000001  -0.000000   0.000000   0.000000  -0.000000  -0.000000
    29  H   -0.000000  -0.000000   0.000000   0.000000   0.000000  -0.000000
    30  H   -0.000008   0.000000   0.000000   0.000000   0.000000   0.000000
    31  H    0.000000  -0.000000  -0.000000   0.000000   0.000000   0.000000
    32  N   -0.003829  -0.000106   0.000008   0.000000   0.000311   0.000000
    33  N   -0.000000  -0.000000  -0.000000  -0.000000   0.000029   0.000000
    34  N    0.000008  -0.000106  -0.003829   0.258155   0.351863  -0.041209
    35  N   -0.000000  -0.000000  -0.000000  -0.046489   0.306317   0.262828
    36  C   -0.000000   0.000000  -0.000000   0.005507  -0.044453  -0.048885
    37  H    0.000000  -0.000000   0.000000  -0.000138   0.000551  -0.001032
    38  H    0.000000  -0.000000   0.000000  -0.000138   0.000547  -0.001029
    39  H    0.000000   0.000000   0.000000   0.000016   0.000593   0.002591
    40  C   -0.000000   0.000000  -0.000000   0.000000   0.000014   0.000000
    41  H    0.000000  -0.000000   0.000000  -0.000000  -0.000000  -0.000000
    42  H    0.000000  -0.000000   0.000000  -0.000000  -0.000000  -0.000000
    43  H    0.000000   0.000000   0.000000   0.000000  -0.000002  -0.000000
    44  Co  -0.000547   0.000137  -0.000547   0.007295   0.359317   0.005808
              13         14         15         16         17         18
     1  C    0.000137   0.000002   0.000002  -0.000027   0.000000  -0.000000
     2  C    0.000001  -0.000000  -0.000000   0.000000   0.000000   0.000000
     3  C   -0.000001   0.000000   0.000000   0.000001   0.000000   0.000000
     4  C    0.000050  -0.000000  -0.000001   0.000097   0.000000   0.000000
     5  C    0.002268   0.000003   0.000080   0.000145  -0.000001  -0.000000
     6  C   -0.003683  -0.000023   0.000066   0.000752  -0.000004   0.000002
     7  H   -0.000000  -0.000000  -0.000000   0.000000   0.000000   0.000000
     8  H    0.000002   0.000000   0.000000  -0.000011  -0.000000  -0.000000
     9  H   -0.000322  -0.000000   0.000126   0.006462   0.000001  -0.000000
    10  C    0.539137  -0.048941  -0.005832  -0.032938  -0.039451   0.004003
    11  C    0.004502   0.004887  -0.000055  -0.000152  -0.000055  -0.000215
    12  C   -0.057066   0.533209  -0.038008   0.003699  -0.009216  -0.038012
    13  C    5.026714  -0.044768   0.507821   0.355513  -0.036672   0.000274
    14  C   -0.044768   5.024576  -0.036785   0.000436   0.519673   0.362203
    15  C    0.507821  -0.036785   4.898354  -0.035419   0.556353   0.003807
    16  H    0.355513   0.000436  -0.035419   0.509290   0.003651   0.000013
    17  C   -0.036672   0.519673   0.556353   0.003651   4.887298  -0.035052
    18  H    0.000274   0.362203   0.003807   0.000013  -0.035052   0.533115
    19  H   -0.035500   0.003896   0.369285  -0.003805  -0.035612  -0.000141
    20  H    0.004056  -0.037134  -0.036696  -0.000147   0.368136  -0.004292
    21  C    0.000000  -0.000000  -0.000000   0.000000   0.000000   0.000000
    22  C    0.000000   0.000000  -0.000000   0.000000  -0.000000   0.000000
    23  C   -0.000000   0.000000   0.000000  -0.000000  -0.000000  -0.000000
    24  C    0.000000  -0.000000   0.000000   0.000000   0.000000   0.000000
    25  C   -0.000000  -0.000000   0.000000  -0.000000  -0.000000   0.000000
    26  C    0.000000   0.000000  -0.000000  -0.000000  -0.000000   0.000000
    27  H    0.000000  -0.000000  -0.000000   0.000000   0.000000  -0.000000
    28  C    0.000000  -0.000000  -0.000000   0.000000   0.000000   0.000000
    29  H    0.000000   0.000000   0.000000  -0.000000   0.000000  -0.000000
    30  H   -0.000000  -0.000000   0.000000  -0.000000   0.000000   0.000000
    31  H   -0.000000   0.000000   0.000000  -0.000000   0.000000   0.000000
    32  N   -0.000000   0.000000   0.000000   0.000000   0.000000  -0.000000
    33  N    0.000000  -0.000000  -0.000000   0.000000   0.000000  -0.000000
    34  N   -0.077588   0.009390   0.005137  -0.005114  -0.000178  -0.000099
    35  N    0.009703  -0.082403  -0.000181  -0.000094   0.005452  -0.007291
    36  C   -0.000115  -0.002737   0.000009   0.000003  -0.000108   0.004262
    37  H   -0.000009   0.002565  -0.000001  -0.000000  -0.000004   0.000520
    38  H   -0.000009   0.002563  -0.000001  -0.000000  -0.000004   0.000518
    39  H    0.000005   0.000014  -0.000000  -0.000000   0.000001  -0.000033
    40  C    0.000000   0.000000  -0.000000   0.000000   0.000000  -0.000000
    41  H   -0.000000  -0.000000   0.000000  -0.000000   0.000000  -0.000000
    42  H   -0.000000  -0.000000   0.000000  -0.000000   0.000000  -0.000000
    43  H    0.000000   0.000000  -0.000000   0.000000  -0.000000   0.000000
    44  Co  -0.001336  -0.001387   0.000177   0.000043   0.000150   0.000026
              19         20         21         22         23         24
     1  C   -0.000000   0.000000   0.006250   0.006004  -0.000689   0.000137
     2  C    0.000000  -0.000000  -0.046857  -0.066021   0.007342  -0.003685
     3  C   -0.000000   0.000000  -0.005485   0.003233   0.000106   0.002268
     4  C    0.000000  -0.000000   0.000133   0.000030   0.000001   0.000050
     5  C    0.000001  -0.000000   0.000003  -0.000056  -0.000000  -0.000001
     6  C   -0.000003  -0.000000  -0.000032   0.002406   0.000002   0.000001
     7  H    0.000000  -0.000000   0.000381  -0.000185  -0.000043  -0.000320
     8  H    0.000000  -0.000000  -0.000003   0.000001  -0.000000   0.000002
     9  H   -0.000008   0.000000  -0.000000  -0.000000   0.000000  -0.000000
    10  C    0.001879   0.000900  -0.000000  -0.000007   0.000000   0.000000
    11  C    0.000003   0.000003  -0.000007  -0.014028  -0.000002   0.000000
    12  C    0.000941   0.002386   0.000000  -0.000002  -0.000000  -0.000000
    13  C   -0.035500   0.004056   0.000000   0.000000  -0.000000   0.000000
    14  C    0.003896  -0.037134  -0.000000   0.000000   0.000000  -0.000000
    15  C    0.369285  -0.036696  -0.000000  -0.000000   0.000000   0.000000
    16  H   -0.003805  -0.000147   0.000000   0.000000  -0.000000   0.000000
    17  C   -0.035612   0.368136   0.000000  -0.000000  -0.000000   0.000000
    18  H   -0.000141  -0.004292   0.000000   0.000000  -0.000000   0.000000
    19  H    0.529598  -0.004631   0.000000   0.000000   0.000000  -0.000000
    20  H   -0.004631   0.537359   0.000000   0.000000   0.000000  -0.000000
    21  C    0.000000   0.000000   4.639240  -0.067176   0.514632   0.539161
    22  C    0.000000   0.000000  -0.067176   4.804197  -0.054920   0.004503
    23  C    0.000000   0.000000   0.514632  -0.054920   4.665181  -0.057079
    24  C   -0.000000  -0.000000   0.539161   0.004503  -0.057079   5.026820
    25  C   -0.000000   0.000000  -0.048931   0.004886   0.533187  -0.044771
    26  C    0.000000   0.000000  -0.005825  -0.000055  -0.038008   0.507782
    27  H   -0.000000  -0.000000  -0.032932  -0.000152   0.003699   0.355504
    28  C    0.000000   0.000000  -0.039451  -0.000055  -0.009223  -0.036670
    29  H    0.000000   0.000000   0.004003  -0.000215  -0.038014   0.000274
    30  H    0.000000   0.000000   0.001878   0.000003   0.000941  -0.035495
    31  H    0.000000   0.000000   0.000900   0.000003   0.002386   0.004056
    32  N    0.000000   0.000000   0.258134   0.351872  -0.041201  -0.077608
    33  N   -0.000000  -0.000000  -0.046493   0.306302   0.262836   0.009705
    34  N   -0.000094   0.000003   0.000000   0.000311   0.000000  -0.000000
    35  N    0.000004  -0.000102  -0.000000   0.000029   0.000000   0.000000
    36  C   -0.000000  -0.000002   0.000000   0.000014   0.000000   0.000000
    37  H   -0.000000  -0.000000  -0.000000  -0.000000  -0.000000  -0.000000
    38  H   -0.000000  -0.000000  -0.000000  -0.000000  -0.000000  -0.000000
    39  H   -0.000000  -0.000000   0.000000  -0.000002  -0.000000   0.000000
    40  C    0.000000  -0.000000   0.005506  -0.044452  -0.048887  -0.000114
    41  H   -0.000000   0.000000  -0.000138   0.000546  -0.001028  -0.000009
    42  H   -0.000000   0.000000  -0.000138   0.000551  -0.001031  -0.000009
    43  H   -0.000000   0.000000   0.000016   0.000593   0.002591   0.000005
    44  Co   0.000013  -0.000010   0.007295   0.359318   0.005808  -0.001336
              25         26         27         28         29         30
     1  C    0.000002   0.000002  -0.000027   0.000000  -0.000000  -0.000000
     2  C   -0.000023   0.000066   0.000753  -0.000004   0.000002  -0.000003
     3  C    0.000003   0.000080   0.000145  -0.000001  -0.000000   0.000001
     4  C   -0.000000  -0.000001   0.000097   0.000000   0.000000   0.000000
     5  C    0.000000   0.000000   0.000001   0.000000   0.000000  -0.000000
     6  C   -0.000000  -0.000000   0.000000   0.000000   0.000000   0.000000
     7  H   -0.000000   0.000126   0.006462   0.000001  -0.000000  -0.000008
     8  H    0.000000   0.000000  -0.000011  -0.000000  -0.000000   0.000000
     9  H   -0.000000  -0.000000   0.000000   0.000000   0.000000   0.000000
    10  C   -0.000000  -0.000000   0.000000   0.000000   0.000000   0.000000
    11  C    0.000000  -0.000000   0.000000  -0.000000   0.000000   0.000000
    12  C    0.000000   0.000000  -0.000000  -0.000000  -0.000000   0.000000
    13  C   -0.000000   0.000000   0.000000   0.000000   0.000000  -0.000000
    14  C   -0.000000   0.000000  -0.000000  -0.000000   0.000000  -0.000000
    15  C    0.000000  -0.000000  -0.000000  -0.000000   0.000000   0.000000
    16  H   -0.000000  -0.000000   0.000000   0.000000  -0.000000  -0.000000
    17  C   -0.000000  -0.000000   0.000000   0.000000   0.000000   0.000000
    18  H    0.000000   0.000000  -0.000000   0.000000  -0.000000   0.000000
    19  H   -0.000000   0.000000  -0.000000   0.000000   0.000000   0.000000
    20  H    0.000000   0.000000  -0.000000   0.000000   0.000000   0.000000
    21  C   -0.048931  -0.005825  -0.032932  -0.039451   0.004003   0.001878
    22  C    0.004886  -0.000055  -0.000152  -0.000055  -0.000215   0.000003
    23  C    0.533187  -0.038008   0.003699  -0.009223  -0.038014   0.000941
    24  C   -0.044771   0.507782   0.355504  -0.036670   0.000274  -0.035495
    25  C    5.024498  -0.036787   0.000436   0.519705   0.362209   0.003896
    26  C   -0.036787   4.898382  -0.035418   0.556355   0.003807   0.369291
    27  H    0.000436  -0.035418   0.509287   0.003651   0.000013  -0.003805
    28  C    0.519705   0.556355   0.003651   4.887272  -0.035054  -0.035610
    29  H    0.362209   0.003807   0.000013  -0.035054   0.533116  -0.000141
    30  H    0.003896   0.369291  -0.003805  -0.035610  -0.000141   0.529580
    31  H   -0.037138  -0.036699  -0.000147   0.368130  -0.004294  -0.004631
    32  N    0.009389   0.005137  -0.005115  -0.000178  -0.000099  -0.000094
    33  N   -0.082388  -0.000181  -0.000094   0.005452  -0.007290   0.000004
    34  N    0.000000   0.000000   0.000000   0.000000  -0.000000   0.000000
    35  N   -0.000000  -0.000000   0.000000   0.000000  -0.000000  -0.000000
    36  C    0.000000  -0.000000   0.000000   0.000000  -0.000000   0.000000
    37  H   -0.000000   0.000000  -0.000000   0.000000  -0.000000  -0.000000
    38  H   -0.000000   0.000000  -0.000000   0.000000  -0.000000  -0.000000
    39  H    0.000000  -0.000000   0.000000  -0.000000   0.000000  -0.000000
    40  C   -0.002738   0.000009   0.000003  -0.000108   0.004262  -0.000000
    41  H    0.002563  -0.000001  -0.000000  -0.000004   0.000518  -0.000000
    42  H    0.002565  -0.000001  -0.000000  -0.000004   0.000520  -0.000000
    43  H    0.000014  -0.000000  -0.000000   0.000001  -0.000033  -0.000000
    44  Co  -0.001387   0.000177   0.000043   0.000149   0.000026   0.000013
              31         32         33         34         35         36
     1  C    0.000000  -0.037812   0.001858  -0.037809   0.001858  -0.000013
     2  C   -0.000000   0.247407   0.006128   0.006261  -0.000038   0.000000
     3  C   -0.000000  -0.076182  -0.000158   0.000195   0.000000   0.000000
     4  C   -0.000000   0.004684   0.000002   0.004684   0.000002  -0.000000
     5  C    0.000000   0.000195   0.000000  -0.076178  -0.000158   0.000002
     6  C   -0.000000   0.006262  -0.000038   0.247413   0.006129  -0.000036
     7  H    0.000000  -0.003829  -0.000000   0.000008  -0.000000  -0.000000
     8  H   -0.000000  -0.000106  -0.000000  -0.000106  -0.000000   0.000000
     9  H   -0.000000   0.000008  -0.000000  -0.003829  -0.000000  -0.000000
    10  C    0.000000   0.000000  -0.000000   0.258155  -0.046489   0.005507
    11  C    0.000000   0.000311   0.000029   0.351863   0.306317  -0.044453
    12  C    0.000000   0.000000   0.000000  -0.041209   0.262828  -0.048885
    13  C   -0.000000  -0.000000   0.000000  -0.077588   0.009703  -0.000115
    14  C    0.000000   0.000000  -0.000000   0.009390  -0.082403  -0.002737
    15  C    0.000000   0.000000  -0.000000   0.005137  -0.000181   0.000009
    16  H   -0.000000   0.000000   0.000000  -0.005114  -0.000094   0.000003
    17  C    0.000000   0.000000   0.000000  -0.000178   0.005452  -0.000108
    18  H    0.000000  -0.000000  -0.000000  -0.000099  -0.007291   0.004262
    19  H    0.000000   0.000000  -0.000000  -0.000094   0.000004  -0.000000
    20  H    0.000000   0.000000  -0.000000   0.000003  -0.000102  -0.000002
    21  C    0.000900   0.258134  -0.046493   0.000000  -0.000000   0.000000
    22  C    0.000003   0.351872   0.306302   0.000311   0.000029   0.000014
    23  C    0.002386  -0.041201   0.262836   0.000000   0.000000   0.000000
    24  C    0.004056  -0.077608   0.009705  -0.000000   0.000000   0.000000
    25  C   -0.037138   0.009389  -0.082388   0.000000  -0.000000   0.000000
    26  C   -0.036699   0.005137  -0.000181   0.000000  -0.000000  -0.000000
    27  H   -0.000147  -0.005115  -0.000094   0.000000   0.000000   0.000000
    28  C    0.368130  -0.000178   0.005452   0.000000   0.000000   0.000000
    29  H   -0.004294  -0.000099  -0.007290  -0.000000  -0.000000  -0.000000
    30  H   -0.004631  -0.000094   0.000004   0.000000  -0.000000   0.000000
    31  H    0.537379   0.000003  -0.000102   0.000000  -0.000000  -0.000000
    32  N    0.000003   7.210205  -0.061174  -0.000083   0.000000   0.000000
    33  N   -0.000102  -0.061174   7.062661   0.000000  -0.000000  -0.000000
    34  N    0.000000  -0.000083   0.000000   7.210117  -0.061172   0.004656
    35  N   -0.000000   0.000000  -0.000000  -0.061172   7.062701   0.299300
    36  C   -0.000000   0.000000  -0.000000   0.004656   0.299300   5.060022
    37  H    0.000000   0.000000   0.000000  -0.000067  -0.041723   0.377440
    38  H    0.000000   0.000000   0.000000  -0.000067  -0.041726   0.377447
    39  H    0.000000  -0.000000   0.000001   0.000153  -0.031581   0.376530
    40  C   -0.000002   0.004656   0.299307   0.000000  -0.000000   0.000000
    41  H   -0.000000  -0.000067  -0.041728   0.000000   0.000000  -0.000000
    42  H   -0.000000  -0.000067  -0.041725   0.000000   0.000000  -0.000000
    43  H   -0.000000   0.000153  -0.031580  -0.000000   0.000001  -0.000001
    44  Co  -0.000010  -0.073804  -0.054928  -0.073803  -0.054929  -0.006927
              37         38         39         40         41         42
     1  C   -0.000001  -0.000001  -0.000014  -0.000013  -0.000001  -0.000001
     2  C   -0.000000  -0.000000   0.000001  -0.000036   0.000004   0.000004
     3  C    0.000000   0.000000   0.000000   0.000002  -0.000000  -0.000000
     4  C    0.000000   0.000000  -0.000000  -0.000000   0.000000   0.000000
     5  C   -0.000000  -0.000000   0.000000   0.000000   0.000000   0.000000
     6  C    0.000004   0.000004  -0.000008   0.000000  -0.000000  -0.000000
     7  H    0.000000   0.000000   0.000000  -0.000000   0.000000   0.000000
     8  H   -0.000000  -0.000000   0.000000   0.000000  -0.000000  -0.000000
     9  H    0.000000   0.000000   0.000000  -0.000000   0.000000   0.000000
    10  C   -0.000138  -0.000138   0.000016   0.000000  -0.000000  -0.000000
    11  C    0.000551   0.000547   0.000593   0.000014  -0.000000  -0.000000
    12  C   -0.001032  -0.001029   0.002591   0.000000  -0.000000  -0.000000
    13  C   -0.000009  -0.000009   0.000005   0.000000  -0.000000  -0.000000
    14  C    0.002565   0.002563   0.000014   0.000000  -0.000000  -0.000000
    15  C   -0.000001  -0.000001  -0.000000  -0.000000   0.000000   0.000000
    16  H   -0.000000  -0.000000  -0.000000   0.000000  -0.000000  -0.000000
    17  C   -0.000004  -0.000004   0.000001   0.000000   0.000000   0.000000
    18  H    0.000520   0.000518  -0.000033  -0.000000  -0.000000  -0.000000
    19  H   -0.000000  -0.000000  -0.000000   0.000000  -0.000000  -0.000000
    20  H   -0.000000  -0.000000  -0.000000  -0.000000   0.000000   0.000000
    21  C   -0.000000  -0.000000   0.000000   0.005506  -0.000138  -0.000138
    22  C   -0.000000  -0.000000  -0.000002  -0.044452   0.000546   0.000551
    23  C   -0.000000  -0.000000  -0.000000  -0.048887  -0.001028  -0.001031
    24  C   -0.000000  -0.000000   0.000000  -0.000114  -0.000009  -0.000009
    25  C   -0.000000  -0.000000   0.000000  -0.002738   0.002563   0.002565
    26  C    0.000000   0.000000  -0.000000   0.000009  -0.000001  -0.000001
    27  H   -0.000000  -0.000000   0.000000   0.000003  -0.000000  -0.000000
    28  C    0.000000   0.000000  -0.000000  -0.000108  -0.000004  -0.000004
    29  H   -0.000000  -0.000000   0.000000   0.004262   0.000518   0.000520
    30  H   -0.000000  -0.000000  -0.000000  -0.000000  -0.000000  -0.000000
    31  H    0.000000   0.000000   0.000000  -0.000002  -0.000000  -0.000000
    32  N    0.000000   0.000000  -0.000000   0.004656  -0.000067  -0.000067
    33  N    0.000000   0.000000   0.000001   0.299307  -0.041728  -0.041725
    34  N   -0.000067  -0.000067   0.000153   0.000000   0.000000   0.000000
    35  N   -0.041723  -0.041726  -0.031581  -0.000000   0.000000   0.000000
    36  C    0.377440   0.377447   0.376530   0.000000  -0.000000  -0.000000
    37  H    0.523155  -0.039537  -0.025002  -0.000000   0.000000  -0.000000
    38  H   -0.039537   0.523149  -0.025008  -0.000000  -0.000000   0.000000
    39  H   -0.025002  -0.025008   0.467522  -0.000001   0.000000   0.000000
    40  C   -0.000000  -0.000000  -0.000001   5.060025   0.377446   0.377440
    41  H    0.000000  -0.000000   0.000000   0.377446   0.523154  -0.039538
    42  H   -0.000000   0.000000   0.000000   0.377440  -0.039538   0.523161
    43  H    0.000000   0.000000  -0.000024   0.376530  -0.025008  -0.025002
    44  Co   0.000627   0.000629   0.008156  -0.006926   0.000629   0.000627
              43         44
     1  C   -0.000014   0.255593
     2  C   -0.000008  -0.062945
     3  C    0.000000   0.006569
     4  C   -0.000000   0.001970
     5  C    0.000000   0.006570
     6  C    0.000001  -0.062948
     7  H    0.000000  -0.000547
     8  H    0.000000   0.000137
     9  H    0.000000  -0.000547
    10  C    0.000000   0.007295
    11  C   -0.000002   0.359317
    12  C   -0.000000   0.005808
    13  C    0.000000  -0.001336
    14  C    0.000000  -0.001387
    15  C   -0.000000   0.000177
    16  H    0.000000   0.000043
    17  C   -0.000000   0.000150
    18  H    0.000000   0.000026
    19  H   -0.000000   0.000013
    20  H    0.000000  -0.000010
    21  C    0.000016   0.007295
    22  C    0.000593   0.359318
    23  C    0.002591   0.005808
    24  C    0.000005  -0.001336
    25  C    0.000014  -0.001387
    26  C   -0.000000   0.000177
    27  H   -0.000000   0.000043
    28  C    0.000001   0.000149
    29  H   -0.000033   0.000026
    30  H   -0.000000   0.000013
    31  H   -0.000000  -0.000010
    32  N    0.000153  -0.073804
    33  N   -0.031580  -0.054928
    34  N   -0.000000  -0.073803
    35  N    0.000001  -0.054929
    36  C   -0.000001  -0.006927
    37  H    0.000000   0.000627
    38  H    0.000000   0.000629
    39  H   -0.000024   0.008156
    40  C    0.376530  -0.006926
    41  H   -0.025008   0.000629
    42  H   -0.025002   0.000627
    43  H    0.467519   0.008156
    44  Co   0.008156  16.478639
          Atomic-Atomic Spin Densities.
               1          2          3          4          5          6
     1  C   -0.000001   0.000000   0.000000   0.000000   0.000000   0.000000
     2  C    0.000000   0.000000  -0.000000  -0.000000  -0.000000  -0.000000
     3  C    0.000000  -0.000000  -0.000000   0.000000   0.000000  -0.000000
     4  C    0.000000  -0.000000   0.000000  -0.000000   0.000000  -0.000000
     5  C    0.000000  -0.000000   0.000000   0.000000  -0.000000  -0.000000
     6  C    0.000000  -0.000000  -0.000000  -0.000000  -0.000000   0.000000
     7  H   -0.000000   0.000000   0.000000   0.000000  -0.000000   0.000000
     8  H   -0.000000   0.000000  -0.000000  -0.000000  -0.000000   0.000000
     9  H   -0.000000   0.000000  -0.000000   0.000000   0.000000   0.000000
    10  C   -0.000000  -0.000000   0.000000  -0.000000  -0.000000   0.000000
    11  C    0.000000   0.000000   0.000000  -0.000000  -0.000000   0.000000
    12  C    0.000000   0.000000   0.000000  -0.000000  -0.000000  -0.000000
    13  C   -0.000000  -0.000000   0.000000  -0.000000  -0.000000   0.000000
    14  C   -0.000000  -0.000000   0.000000  -0.000000  -0.000000   0.000000
    15  C   -0.000000  -0.000000  -0.000000  -0.000000   0.000000  -0.000000
    16  H   -0.000000   0.000000  -0.000000   0.000000   0.000000   0.000000
    17  C    0.000000   0.000000  -0.000000  -0.000000   0.000000  -0.000000
    18  H    0.000000  -0.000000  -0.000000   0.000000   0.000000  -0.000000
    19  H    0.000000   0.000000  -0.000000   0.000000   0.000000  -0.000000
    20  H   -0.000000  -0.000000   0.000000  -0.000000  -0.000000  -0.000000
    21  C   -0.000000   0.000000  -0.000000  -0.000000   0.000000  -0.000000
    22  C    0.000000   0.000000  -0.000000  -0.000000   0.000000   0.000000
    23  C    0.000000  -0.000000  -0.000000  -0.000000   0.000000   0.000000
    24  C   -0.000000   0.000000  -0.000000  -0.000000   0.000000  -0.000000
    25  C   -0.000000   0.000000  -0.000000  -0.000000   0.000000  -0.000000
    26  C   -0.000000  -0.000000   0.000000  -0.000000  -0.000000  -0.000000
    27  H   -0.000000   0.000000   0.000000   0.000000  -0.000000   0.000000
    28  C    0.000000  -0.000000   0.000000  -0.000000  -0.000000   0.000000
    29  H    0.000000  -0.000000   0.000000   0.000000  -0.000000  -0.000000
    30  H    0.000000  -0.000000   0.000000   0.000000  -0.000000   0.000000
    31  H   -0.000000  -0.000000  -0.000000  -0.000000   0.000000  -0.000000
    32  N    0.000000  -0.000000   0.000000   0.000000  -0.000000   0.000000
    33  N   -0.000000  -0.000000  -0.000000  -0.000000   0.000000  -0.000000
    34  N    0.000000   0.000000  -0.000000   0.000000   0.000000  -0.000000
    35  N   -0.000000  -0.000000   0.000000  -0.000000  -0.000000  -0.000000
    36  C   -0.000000  -0.000000   0.000000  -0.000000  -0.000000   0.000000
    37  H   -0.000000   0.000000  -0.000000  -0.000000  -0.000000  -0.000000
    38  H    0.000000  -0.000000   0.000000   0.000000   0.000000   0.000000
    39  H    0.000000   0.000000  -0.000000   0.000000   0.000000  -0.000000
    40  C   -0.000000   0.000000  -0.000000  -0.000000   0.000000  -0.000000
    41  H    0.000000   0.000000   0.000000   0.000000   0.000000  -0.000000
    42  H   -0.000000  -0.000000  -0.000000  -0.000000  -0.000000   0.000000
    43  H    0.000000  -0.000000   0.000000   0.000000  -0.000000   0.000000
    44  Co   0.000000   0.000000   0.000000   0.000000   0.000000   0.000000
               7          8          9         10         11         12
     1  C   -0.000000  -0.000000  -0.000000  -0.000000   0.000000   0.000000
     2  C    0.000000   0.000000   0.000000  -0.000000   0.000000   0.000000
     3  C    0.000000  -0.000000  -0.000000   0.000000   0.000000   0.000000
     4  C    0.000000  -0.000000   0.000000  -0.000000  -0.000000  -0.000000
     5  C   -0.000000  -0.000000   0.000000  -0.000000  -0.000000  -0.000000
     6  C    0.000000   0.000000   0.000000   0.000000   0.000000  -0.000000
     7  H   -0.000000   0.000000  -0.000000   0.000000  -0.000000   0.000000
     8  H    0.000000   0.000000   0.000000   0.000000  -0.000000   0.000000
     9  H   -0.000000   0.000000  -0.000000   0.000000  -0.000000   0.000000
    10  C    0.000000   0.000000   0.000000   0.000000  -0.000000   0.000000
    11  C   -0.000000  -0.000000  -0.000000  -0.000000  -0.000001  -0.000000
    12  C    0.000000   0.000000   0.000000   0.000000  -0.000000   0.000000
    13  C    0.000000  -0.000000   0.000000  -0.000000  -0.000000  -0.000000
    14  C    0.000000   0.000000   0.000000  -0.000000  -0.000000   0.000000
    15  C   -0.000000  -0.000000   0.000000   0.000000   0.000000  -0.000000
    16  H   -0.000000   0.000000  -0.000000   0.000000  -0.000000   0.000000
    17  C    0.000000   0.000000   0.000000  -0.000000   0.000000   0.000000
    18  H   -0.000000  -0.000000  -0.000000   0.000000  -0.000000   0.000000
    19  H    0.000000   0.000000   0.000000  -0.000000  -0.000000   0.000000
    20  H    0.000000   0.000000   0.000000   0.000000   0.000000  -0.000000
    21  C    0.000000   0.000000   0.000000  -0.000000  -0.000000  -0.000000
    22  C   -0.000000  -0.000000  -0.000000  -0.000000  -0.000000  -0.000000
    23  C    0.000000   0.000000   0.000000  -0.000000  -0.000000  -0.000000
    24  C    0.000000  -0.000000   0.000000  -0.000000   0.000000   0.000000
    25  C    0.000000   0.000000   0.000000  -0.000000   0.000000   0.000000
    26  C    0.000000  -0.000000  -0.000000  -0.000000  -0.000000  -0.000000
    27  H   -0.000000   0.000000  -0.000000   0.000000  -0.000000   0.000000
    28  C    0.000000   0.000000   0.000000   0.000000  -0.000000  -0.000000
    29  H   -0.000000  -0.000000  -0.000000   0.000000  -0.000000  -0.000000
    30  H    0.000000   0.000000   0.000000   0.000000   0.000000   0.000000
    31  H    0.000000   0.000000   0.000000  -0.000000   0.000000   0.000000
    32  N   -0.000000   0.000000  -0.000000   0.000000  -0.000000  -0.000000
    33  N    0.000000   0.000000   0.000000  -0.000000  -0.000000   0.000000
    34  N   -0.000000   0.000000  -0.000000   0.000000   0.000000  -0.000000
    35  N    0.000000   0.000000   0.000000  -0.000000   0.000000  -0.000000
    36  C    0.000000   0.000000  -0.000000   0.000000   0.000000  -0.000000
    37  H    0.000000   0.000000   0.000000   0.000000   0.000000   0.000000
    38  H   -0.000000  -0.000000  -0.000000  -0.000000  -0.000000  -0.000000
    39  H   -0.000000   0.000000  -0.000000   0.000000  -0.000000  -0.000000
    40  C   -0.000000   0.000000   0.000000  -0.000000   0.000000   0.000000
    41  H   -0.000000  -0.000000  -0.000000   0.000000  -0.000000  -0.000000
    42  H    0.000000   0.000000   0.000000  -0.000000   0.000000   0.000000
    43  H   -0.000000   0.000000  -0.000000  -0.000000  -0.000000  -0.000000
    44  Co  -0.000000  -0.000000  -0.000000  -0.000000  -0.000000  -0.000000
              13         14         15         16         17         18
     1  C   -0.000000  -0.000000  -0.000000  -0.000000   0.000000   0.000000
     2  C   -0.000000  -0.000000  -0.000000   0.000000   0.000000  -0.000000
     3  C    0.000000   0.000000  -0.000000  -0.000000  -0.000000  -0.000000
     4  C   -0.000000  -0.000000  -0.000000   0.000000  -0.000000   0.000000
     5  C   -0.000000  -0.000000   0.000000   0.000000   0.000000   0.000000
     6  C    0.000000   0.000000  -0.000000   0.000000  -0.000000  -0.000000
     7  H    0.000000   0.000000  -0.000000  -0.000000   0.000000  -0.000000
     8  H   -0.000000   0.000000  -0.000000   0.000000   0.000000  -0.000000
     9  H    0.000000   0.000000   0.000000  -0.000000   0.000000  -0.000000
    10  C   -0.000000  -0.000000   0.000000   0.000000  -0.000000   0.000000
    11  C   -0.000000  -0.000000   0.000000  -0.000000   0.000000  -0.000000
    12  C   -0.000000   0.000000  -0.000000   0.000000   0.000000   0.000000
    13  C   -0.000000  -0.000000   0.000000  -0.000000   0.000000   0.000000
    14  C   -0.000000  -0.000000   0.000000   0.000000   0.000000   0.000000
[...]
    40 C(13)  Bbb     0.0000     0.000     0.000     0.000  0.3865  0.9212 -0.0457
              Bcc     0.0000     0.000     0.000     0.000  0.6481 -0.2360  0.7241
 
              Baa    -0.0000    -0.000    -0.000    -0.000 -0.0465 -0.5926  0.8041
    41 H(1)   Bbb    -0.0000    -0.000    -0.000    -0.000 -0.3172  0.7721  0.5507
              Bcc     0.0000     0.000     0.000     0.000  0.9472  0.2294  0.2239
 
              Baa    -0.0000    -0.000    -0.000    -0.000  0.9347  0.2613 -0.2410
    42 H(1)   Bbb     0.0000     0.000     0.000     0.000 -0.3362  0.8700 -0.3606
              Bcc     0.0000     0.000     0.000     0.000  0.1155  0.4181  0.9010
 
              Baa    -0.0000    -0.000    -0.000    -0.000 -0.6114 -0.3215  0.7231
    43 H(1)   Bbb    -0.0000    -0.000    -0.000    -0.000 -0.4957  0.8678 -0.0333
              Bcc     0.0000     0.000     0.000     0.000  0.6168  0.3788  0.6899
 
              Baa    -0.0002    -0.024    -0.009    -0.008 -0.0001  0.7095  0.7047
    44 Co(59) Bbb    -0.0000    -0.001    -0.000    -0.000  1.0000  0.0000  0.0000
              Bcc     0.0002     0.026     0.009     0.009  0.0000 -0.7047  0.7095
 

 ---------------------------------------------------------------------------------

   1 Symmetry operations used in ECPInt.
 ECPInt:  NShTT=   11781 NPrTT=   71406 LenC2=    9534 LenP2D=   32091.
 LDataN:  DoStor=T MaxTD1= 7 Len=  274
 Calling FoFJK, ICntrl=      2127 FMM=F ISym2X=0 I1Cent= 0 IOpClX= 1 NMat=1 NMatS=1 NMatT=0.
 -------------------------------------------------------------------
 Center     Atomic                   Forces (Hartrees/Bohr)
 Number     Number              X              Y              Z
 -------------------------------------------------------------------
      1        6           0.000029856   -0.080309244   -0.000011860
      2        6           0.069332407    0.038722999    0.000012496
      3        6          -0.002205880    0.006274216   -0.000003960
      4        6          -0.000022876    0.003171867   -0.000000379
      5        6           0.002242521    0.006260331   -0.000004048
      6        6          -0.069379884    0.038744688    0.000011260
      7        1          -0.001577505    0.006215102   -0.000000608
      8        1           0.000001300    0.001874338    0.000000734
      9        1           0.001568565    0.006210776   -0.000000601
     10        6          -0.016435003   -0.009095924    0.000002208
     11        6           0.001407344    0.007597333   -0.000001321
     12        6           0.017983738    0.008010190   -0.000000512
     13        6           0.020277497    0.005767993   -0.000002393
     14        6          -0.002996068    0.002460026   -0.000000467
     15        6          -0.019396995    0.007517635    0.000001741
     16        1          -0.000098883    0.000166441   -0.000000152
     17        6           0.007833816   -0.010628889   -0.000000139
     18        1           0.001719699    0.000613925    0.000000283
     19        1           0.002102266    0.000921823   -0.000000217
     20        1          -0.001158695    0.000240838   -0.000000000
     21        6           0.016553109   -0.009213974    0.000000855
     22        6          -0.001417899    0.007599415   -0.000003773
     23        6          -0.018129368    0.008002111   -0.000000786
     24        6          -0.020386472    0.005885006   -0.000001480
     25        6           0.003129144    0.002460031   -0.000000607
     26        6           0.019464346    0.007489932    0.000000607
     27        1           0.000096245    0.000139909   -0.000000082
     28        6          -0.007902214   -0.010596079    0.000000409
     29        1          -0.001731107    0.000600150    0.000000070
     30        1          -0.002115833    0.000937769   -0.000000117
     31        1           0.001179313    0.000243101   -0.000000071
     32        7          -0.024993818   -0.064242745    0.000000344
     33        7           0.029276800    0.018398854    0.000005147
     34        7           0.024996150   -0.064273629   -0.000003305
     35        7          -0.029234376    0.018375482    0.000004032
     36        6           0.001109629   -0.008401330   -0.000003730
     37        1           0.000985799    0.000780271    0.000636123
     38        1           0.000986277    0.000779785   -0.000634475
     39        1          -0.000269984    0.002650478    0.000001548
     40        6          -0.001121598   -0.008417197   -0.000004252
     41        1          -0.000984702    0.000780201   -0.000636868
     42        1          -0.000984524    0.000780004    0.000638554
     43        1           0.000271494    0.002652373    0.000001800
     44       27          -0.000003632    0.045853618   -0.000002008
 -------------------------------------------------------------------
 Cartesian Forces:  Max     0.080309244 RMS     0.016785929

 GradGradGradGradGradGradGradGradGradGradGradGradGradGradGradGradGradGrad
 Berny optimization.
 Search for a local minimum.
 Step number   1 out of a maximum of    2
 All quantities printed in internal units (Hartrees-Bohrs-Radians)
 Second derivative matrix not updated -- first step.
 ITU=  0
     Eigenvalues ---    0.00056   0.00060   0.00199   0.00250   0.00251
     Eigenvalues ---    0.00392   0.00452   0.00617   0.00647   0.00659
     Eigenvalues ---    0.00673   0.00840   0.00846   0.01336   0.01585
     Eigenvalues ---    0.01823   0.02028   0.02058   0.02569   0.02569
     Eigenvalues ---    0.03074   0.03197   0.04101   0.04204   0.04480
     Eigenvalues ---    0.04528   0.04703   0.05392   0.05538   0.06304
     Eigenvalues ---    0.06333   0.06907   0.06939   0.07062   0.07067
     Eigenvalues ---    0.07074   0.07302   0.07690   0.07754   0.09630
     Eigenvalues ---    0.10122   0.10364   0.10441   0.11750   0.11921
     Eigenvalues ---    0.12006   0.12371   0.12437   0.12880   0.13413
     Eigenvalues ---    0.13433   0.13507   0.13697   0.14871   0.15554
     Eigenvalues ---    0.15914   0.15915   0.19682   0.20211   0.20554
     Eigenvalues ---    0.21244   0.22161   0.24243   0.25396   0.28788
     Eigenvalues ---    0.29688   0.30328   0.30880   0.30964   0.32109
     Eigenvalues ---    0.32343   0.35104   0.36823   0.36959   0.38340
     Eigenvalues ---    0.38384   0.41398   0.42187   0.45142   0.48009
     Eigenvalues ---    0.48541   0.49206   0.49407   0.51500   0.52924
     Eigenvalues ---    0.53817   0.55029   0.57011   0.63621   0.69022
     Eigenvalues ---    0.71616   0.73241   0.73975   0.74484   0.87388
     Eigenvalues ---    0.90412   0.91385   0.91747   0.94143   0.94798
     Eigenvalues ---    0.95563   0.97393   1.00829   1.04720   1.13065
     Eigenvalues ---    1.15992   1.16556   1.18647   1.21429   1.24702
     Eigenvalues ---    1.30950   1.38452   1.38859   1.46484   1.48563
     Eigenvalues ---    1.50500   1.51592   1.54458   1.61989   1.65420
     Eigenvalues ---    1.66981   1.67695   1.79518   1.80827   1.86744
     Eigenvalues ---    1.89608
 Quadratic step=5.686D-01 exceeds max=3.000D-01 adjusted using Lamda=-3.129D-02.
 Angle between NR and scaled steps=  35.83 degrees.
 Angle between quadratic step and forces=  46.16 degrees.
 Linear search not attempted -- first point.
 B after Tr=     0.000000   -0.002346   -0.000000
         Rot=    1.000000   -0.000000   -0.000000    0.000000 Ang=  -0.00 deg.
 Variable       Old X    -DE/DX   Delta X   Delta X   Delta X     New X
                                 (Linear)    (Quad)   (Total)
    X1       -0.00002   0.00003   0.00000   0.00003   0.00003   0.00001
    Y1        1.47049  -0.08031   0.00000  -0.15039  -0.15274   1.31775
    Z1        0.00023  -0.00001   0.00000  -0.00002  -0.00002   0.00021
    X2       -2.40860   0.06933   0.00000   0.09422   0.09422  -2.31438
    Y2        2.56419   0.03872   0.00000  -0.01757  -0.01992   2.54427
    Z2        0.00001   0.00001   0.00000   0.00004   0.00004   0.00005
    X3       -2.35511  -0.00221   0.00000   0.03102   0.03102  -2.32409
    Y3        5.19162   0.00627   0.00000   0.01041   0.00806   5.19968
    Z3       -0.00001  -0.00000   0.00000   0.00000   0.00000  -0.00000
    X4        0.00002  -0.00002   0.00000  -0.00002  -0.00002   0.00001
    Y4        6.41307   0.00317   0.00000   0.04259   0.04024   6.45332
    Z4        0.00003  -0.00000   0.00000  -0.00000  -0.00000   0.00002
    X5        2.35508   0.00224   0.00000  -0.03100  -0.03100   2.32408
    Y5        5.19163   0.00626   0.00000   0.01040   0.00806   5.19969
    Z5        0.00009  -0.00000   0.00000  -0.00000   0.00000   0.00009
    X6        2.40864  -0.06938   0.00000  -0.09423  -0.09423   2.31441
    Y6        2.56417   0.03874   0.00000  -0.01756  -0.01990   2.54426
    Z6        0.00009   0.00001   0.00000   0.00003   0.00003   0.00012
    X7       -4.07643  -0.00158   0.00000   0.02181   0.02181  -4.05462
    Y7        6.28900   0.00622   0.00000   0.02134   0.01899   6.30799
    Z7       -0.00008  -0.00000   0.00000  -0.00001  -0.00001  -0.00009
    X8       -0.00000   0.00000   0.00000  -0.00000  -0.00000  -0.00000
    Y8        8.46199   0.00187   0.00000   0.04409   0.04174   8.50373
    Z8       -0.00002   0.00000   0.00000  -0.00000   0.00000  -0.00002
    X9        4.07644   0.00157   0.00000  -0.02181  -0.02181   4.05463
    Y9        6.28901   0.00621   0.00000   0.02133   0.01898   6.30799
    Z9        0.00010  -0.00000   0.00000  -0.00002  -0.00001   0.00008
   X10        6.96558  -0.01644   0.00000  -0.03980  -0.03980   6.92577
   Y10        1.10192  -0.00910   0.00000  -0.01718  -0.01952   1.08240
   Z10       -0.00005   0.00000   0.00000   0.00000   0.00000  -0.00005
   X11        3.61066   0.00141   0.00000  -0.04301  -0.04301   3.56765
   Y11       -1.70659   0.00760   0.00000  -0.00046  -0.00280  -1.70939
   Z11        0.00016  -0.00000   0.00000  -0.00001  -0.00002   0.00015
   X12        7.88825   0.01798   0.00000  -0.01074  -0.01074   7.87750
   Y12       -1.40652   0.00801   0.00000   0.00839   0.00604  -1.40048
   Z12       -0.00017  -0.00000   0.00000   0.00000   0.00000  -0.00017
   X13        8.56915   0.02028   0.00000  -0.01471  -0.01471   8.55444
   Y13        3.14652   0.00577   0.00000  -0.00277  -0.00512   3.14140
   Z13       -0.00010  -0.00000   0.00000  -0.00001  -0.00001  -0.00011
   X14       10.46849  -0.00300   0.00000  -0.01185  -0.01185  10.45664
   Y14       -1.88953   0.00246   0.00000   0.00331   0.00096  -1.88857
   Z14       -0.00037  -0.00000   0.00000   0.00000   0.00000  -0.00037
   X15       11.19114  -0.01940   0.00000  -0.03580  -0.03580  11.15534
   Y15        2.65166   0.00752   0.00000   0.00108  -0.00127   2.65040
   Z15       -0.00032   0.00000   0.00000   0.00000   0.00000  -0.00032
   X16        7.87386  -0.00010   0.00000  -0.00813  -0.00813   7.86574
   Y16        5.07032   0.00017   0.00000   0.00002  -0.00232   5.06799
   Z16        0.00002  -0.00000   0.00000  -0.00001  -0.00001   0.00001
   X17       12.09170   0.00783   0.00000  -0.00603  -0.00603  12.08567
   Y17        0.19481  -0.01063   0.00000  -0.00687  -0.00921   0.18560
   Z17       -0.00046  -0.00000   0.00000   0.00001   0.00000  -0.00045
   X18       11.17020   0.00172   0.00000   0.00301   0.00301  11.17321
   Y18       -3.81712   0.00061   0.00000   0.00816   0.00582  -3.81130
   Z18       -0.00046   0.00000   0.00000   0.00001   0.00001  -0.00046
   X19       12.48731   0.00210   0.00000  -0.02300  -0.02300  12.46432
   Y19        4.23422   0.00092   0.00000  -0.00022  -0.00257   4.23165
   Z19       -0.00037  -0.00000   0.00000  -0.00000  -0.00000  -0.00037
   X20       14.12155  -0.00116   0.00000  -0.00757  -0.00757  14.11398
   Y20       -0.13480   0.00024   0.00000   0.00060  -0.00174  -0.13655
   Z20       -0.00062  -0.00000   0.00000   0.00000   0.00000  -0.00061
   X21       -6.96566   0.01655   0.00000   0.03986   0.03986  -6.92580
   Y21        1.10200  -0.00921   0.00000  -0.01727  -0.01961   1.08239
   Z21       -0.00008   0.00000   0.00000   0.00000   0.00001  -0.00007
   X22       -3.61063  -0.00142   0.00000   0.04300   0.04300  -3.56763
   Y22       -1.70659   0.00760   0.00000  -0.00044  -0.00279  -1.70937
   Z22        0.00010  -0.00000   0.00000  -0.00001  -0.00001   0.00009
   X23       -7.88812  -0.01813   0.00000   0.01065   0.01065  -7.87747
   Y23       -1.40653   0.00800   0.00000   0.00835   0.00601  -1.40052
   Z23       -0.00012  -0.00000   0.00000   0.00000   0.00000  -0.00012
   X24       -8.56907  -0.02039   0.00000   0.01464   0.01464  -8.55443
   Y24        3.14642   0.00589   0.00000  -0.00270  -0.00505   3.14137
   Z24       -0.00010  -0.00000   0.00000  -0.00001  -0.00000  -0.00010
   X25      -10.46858   0.00313   0.00000   0.01193   0.01193 -10.45664
   Y25       -1.88954   0.00246   0.00000   0.00330   0.00096  -1.88859
   Z25       -0.00019  -0.00000   0.00000  -0.00000  -0.00000  -0.00019
   X26      -11.19119   0.01946   0.00000   0.03583   0.03583 -11.15536
   Y26        2.65167   0.00749   0.00000   0.00108  -0.00126   2.65040
   Z26       -0.00019   0.00000   0.00000  -0.00000  -0.00000  -0.00019
   X27       -7.87386   0.00010   0.00000   0.00809   0.00809  -7.86577
   Y27        5.07033   0.00014   0.00000   0.00000  -0.00234   5.06798
   Z27       -0.00004  -0.00000   0.00000  -0.00001  -0.00001  -0.00005
   X28      -12.09163  -0.00790   0.00000   0.00600   0.00600 -12.08563
   Y28        0.19477  -0.01060   0.00000  -0.00684  -0.00918   0.18559
   Z28       -0.00024   0.00000   0.00000   0.00000   0.00000  -0.00023
   X29      -11.17017  -0.00173   0.00000  -0.00300  -0.00300 -11.17318
   Y29       -3.81713   0.00060   0.00000   0.00813   0.00579  -3.81134
   Z29       -0.00020   0.00000   0.00000   0.00000  -0.00000  -0.00020
   X30      -12.48731  -0.00212   0.00000   0.02298   0.02298 -12.46432
   Y30        4.23419   0.00094   0.00000  -0.00019  -0.00253   4.23165
   Z30       -0.00020  -0.00000   0.00000  -0.00000  -0.00000  -0.00021
   X31      -14.12156   0.00118   0.00000   0.00760   0.00760 -14.11396
   Y31       -0.13483   0.00024   0.00000   0.00062  -0.00172  -0.13655
   Z31       -0.00029  -0.00000   0.00000   0.00000   0.00000  -0.00029
   X32       -4.34722  -0.02499   0.00000   0.03621   0.03621  -4.31100
   Y32        0.89660  -0.06424   0.00000  -0.06585  -0.06819   0.82841
   Z32        0.00003   0.00000   0.00000   0.00001   0.00001   0.00004
   X33       -5.87247   0.02928   0.00000   0.05597   0.05597  -5.81649
   Y33       -3.02445   0.01840   0.00000   0.02838   0.02603  -2.99841
   Z33       -0.00007   0.00001   0.00000   0.00001   0.00001  -0.00006
   X34        4.34723   0.02500   0.00000  -0.03620  -0.03620   4.31103
   Y34        0.89663  -0.06427   0.00000  -0.06585  -0.06820   0.82843
   Z34        0.00016  -0.00000   0.00000  -0.00000  -0.00000   0.00016
   X35        5.87244  -0.02923   0.00000  -0.05597  -0.05597   5.81647
   Y35       -3.02441   0.01838   0.00000   0.02835   0.02601  -2.99840
   Z35       -0.00006   0.00000   0.00000   0.00001   0.00000  -0.00005
   X36        6.02650   0.00111   0.00000  -0.02141  -0.02141   6.00509
   Y36       -5.72178  -0.00840   0.00000   0.01383   0.01149  -5.71029
   Z36        0.00002  -0.00000   0.00000  -0.00000  -0.00001   0.00001
   X37        7.00853   0.00099   0.00000  -0.00533  -0.00533   7.00320
   Y37       -6.41134   0.00078   0.00000   0.02497   0.02262  -6.38872
   Z37       -1.68908   0.00064   0.00000   0.00435   0.00434  -1.68474
   X38        7.00769   0.00099   0.00000  -0.00532  -0.00532   7.00237
   Y38       -6.41135   0.00078   0.00000   0.02496   0.02261  -6.38874
   Z38        1.68959  -0.00063   0.00000  -0.00435  -0.00435   1.68524
   X39        4.11834  -0.00027   0.00000  -0.01921  -0.01921   4.09913
   Y39       -6.50964   0.00265   0.00000   0.01708   0.01473  -6.49491
   Z39       -0.00050   0.00000   0.00000   0.00002   0.00001  -0.00048
   X40       -6.02648  -0.00112   0.00000   0.02140   0.02140  -6.00508
   Y40       -5.72177  -0.00842   0.00000   0.01383   0.01148  -5.71029
   Z40        0.00009  -0.00000   0.00000  -0.00000  -0.00001   0.00008
   X41       -7.00756  -0.00098   0.00000   0.00532   0.00532  -7.00224
   Y41       -6.41133   0.00078   0.00000   0.02495   0.02260  -6.38873
   Z41        1.68975  -0.00064   0.00000  -0.00435  -0.00436   1.68539
   X42       -7.00863  -0.00098   0.00000   0.00533   0.00533  -7.00330
   Y42       -6.41138   0.00078   0.00000   0.02495   0.02261  -6.38877
   Z42       -1.68893   0.00064   0.00000   0.00435   0.00435  -1.68458
   X43       -4.11833   0.00027   0.00000   0.01922   0.01922  -4.09911
   Y43       -6.50964   0.00265   0.00000   0.01710   0.01476  -6.49489
   Z43       -0.00055   0.00000   0.00000   0.00002   0.00002  -0.00053
   X44        0.00002  -0.00000   0.00000  -0.00001  -0.00001   0.00002
   Y44       -2.28872   0.04585   0.00000   0.06377   0.06142  -2.22730
   Z44        0.00028  -0.00000   0.00000  -0.00003  -0.00003   0.00024
         Item               Value     Threshold  Converged?
 Maximum Force            0.080309     0.000450     NO 
 RMS     Force            0.016786     0.000300     NO 
 Maximum Displacement     0.152739     0.001800     NO 
 RMS     Displacement     0.026086     0.001200     NO 
 Predicted change in Energy=-2.145322D-02
 GradGradGradGradGradGradGradGradGradGradGradGradGradGradGradGradGradGrad

 Unable to Open any file for archive entry.
 1\1\GINC-X11P1N5\Force\UPBE1PBE\GenECP\C22H17Co1N4\MAYUMIAO\17-Jul-202
 4\0\\# pbe1pbe em=gd3bj genecp g09default scf=(xqc,maxcycle=64) force 
 guess=read nosymm\\Title Card\\0,1\C,-0.00001091,0.77814772,0.00012133
 \C,-1.27457745,1.35690915,0.00000416\C,-1.24627031,2.74728744,-0.00000
 375\C,0.00001168,3.39365247,0.00001333\C,1.24625728,2.7472921,0.000045
 37\C,1.27459799,1.35689899,0.00004526\H,-2.15715247,3.32799637,-0.0000
 4152\H,-0.00000027,4.47788986,-0.00001179\H,2.15715944,3.32799908,0.00
 005123\C,3.68602498,0.58311033,-0.00002791\C,1.91067635,-0.90308704,0.
 00008716\C,4.17428037,-0.74430031,-0.00009215\C,4.5345997,1.66506524,-
 0.00005435\C,5.5396855,-0.99989564,-0.00019621\C,5.92209668,1.40319887
 ,-0.00016981\H,4.16666865,2.68309514,0.00000992\C,6.39864994,0.1030905
 8,-0.00024311\H,5.91101421,-2.01993328,-0.00024498\H,6.60800207,2.2406
 5023,-0.00019538\H,7.47280335,-0.07133554,-0.00032714\C,-3.68607028,0.
 5831515,-0.00004081\C,-1.91066291,-0.90308777,0.00005369\C,-4.17421595
 ,-0.74430105,-0.00006286\C,-4.5345554,1.66501514,-0.00005204\C,-5.5397
 3171,-0.99990371,-0.00009887\C,-5.92212509,1.4032019,-0.00009851\H,-4.
 16666779,2.68310084,-0.00002329\C,-6.39861686,0.10306919,-0.00012462\H
 ,-5.91100185,-2.0199356,-0.0001054\H,-6.60799819,2.24063572,-0.0001077
 2\H,-7.47280722,-0.07134779,-0.00015287\N,-2.30044946,0.4744609,0.0000
 1586\N,-3.10757526,-1.60046738,-0.00003503\N,2.30045344,0.47447723,0.0
 0008426\N,3.10756178,-1.60044852,-0.00003107\C,3.18908588,-3.02783551,
 0.00000848\H,3.70875388,-3.39273335,-0.89382378\H,3.70831202,-3.392740
 44,0.89409366\H,2.17933353,-3.44475333,-0.00026289\C,-3.18907343,-3.02
 783274,0.00004669\H,-3.70824074,-3.3927301,0.8941761\H,-3.70880575,-3.
 3927559,-0.8937439\H,-2.17932464,-3.44475502,-0.00029084\Co,0.00001107
 ,-1.21113873,0.00014604\\Version=ES64L-G16RevC.01\HF=-1212.1239168\S2=
 0.\S2-1=0.\S2A=0.\RMSD=3.960e-09\RMSF=1.679e-02\Dipole=0.0000387,-1.48
 27571,-0.0000793\Quadrupole=13.1173693,7.4121908,-20.5295601,-0.000780
 3,-0.0003794,0.0000347\PG=C01 [X(C22H17Co1N4)]\\@
 The archive entry for this job was punched.


 Any fool can criticize, condemn, and complain -- and most do.
 -- Dale Carnegie
 Job cpu time:       0 days  0 hours 33 minutes 12.9 seconds.
 Elapsed time:       0 days  0 hours  0 minutes 36.3 seconds.
 File lengths (MBytes):  RWF=    184 Int=      0 D2E=      0 Chk=    162 Scr=      1
 Normal termination of Gaussian 16 at Wed Jul 17 21:06:42 2024.
