 Entering Gaussian System, Link 0=g16
 Input=JOBS/22_A.gjf
 Output=JOBS/22_A.log
 Initial command:
 /data/app/gaussian/C01-avx2//g16/l1.exe "/tmp/Gau-2073551.inp" -scrdir="/tmp/"
 Entering Link 1 = /data/app/gaussian/C01-avx2//g16/l1.exe PID=   2073552.
  
 Copyright (c) 1988-2019, Gaussian, Inc.  All Rights Reserved.
  
 This is part of the Gaussian(R) 16 program.  It is based on
 the Gaussian(R) 09 system (copyright 2009, Gaussian, Inc.),
 the Gaussian(R) 03 system (copyright 2003, Gaussian, Inc.),
 the Gaussian(R) 98 system (copyright 1998, Gaussian, Inc.),
 the Gaussian(R) 94 system (copyright 1995, Gaussian, Inc.),
 the Gaussian 92(TM) system (copyright 1992, Gaussian, Inc.),
 the Gaussian 90(TM) system (copyright 1990, Gaussian, Inc.),
 the Gaussian 88(TM) system (copyright 1988, Gaussian, Inc.),
 the Gaussian 86(TM) system (copyright 1986, Carnegie Mellon
 University), and the Gaussian 82(TM) system (copyright 1983,
 Carnegie Mellon University). Gaussian is a federally registered
 trademark of Gaussian, Inc.
  
 This software contains proprietary and confidential information,
 including trade secrets, belonging to Gaussian, Inc.
  
 This software is provided under written license and may be
 used, copied, transmitted, or stored only in accord with that
 written license.
  
 The following legend is applicable only to US Government
 contracts under FAR:
  
                    RESTRICTED RIGHTS LEGEND
  
 Use, reproduction and disclosure by the US Government is
 subject to restrictions as set forth in subparagraphs (a)
 and (c) of the Commercial Computer Software - Restricted
 Rights clause in FAR 52.227-19.
  
 Gaussian, Inc.
 340 Quinnipiac St., Bldg. 40, Wallingford CT 06492
  
  
 ---------------------------------------------------------------
 Warning -- This program may not be used in any manner that
 competes with the business of Gaussian, Inc. or will provide
 assistance to any competitor of Gaussian, Inc.  The licensee
 of this program is prohibited from giving any competitor of
 Gaussian, Inc. access to this program.  By using this program,
 the user acknowledges that Gaussian, Inc. is engaged in the
 business of creating and licensing software in the field of
 computational chemistry and represents and warrants to the
 licensee that it is not a competitor of Gaussian, Inc. and that
 it will not use this program in any manner prohibited above.
 ---------------------------------------------------------------
  

 Cite this work as:
 Gaussian 16, Revision C.01,
 M. J. Frisch, G. W. Trucks, H. B. Schlegel, G. E. Scuseria, 
 M. A. Robb, J. R. Cheeseman, G. Scalmani, V. Barone, 
 G. A. Petersson, H. Nakatsuji, X. Li, M. Caricato, A. V. Marenich, 
 J. Bloino, B. G. Janesko, R. Gomperts, B. Mennucci, H. P. Hratchian, 
 J. V. Ortiz, A. F. Izmaylov, J. L. Sonnenberg, D. Williams-Young, 
 F. Ding, F. Lipparini, F. Egidi, J. Goings, B. Peng, A. Petrone, 
 T. Henderson, D. Ranasinghe, V. G. Zakrzewski, J. Gao, N. Rega, 
 G. Zheng, W. Liang, M. Hada, M. Ehara, K. Toyota, R. Fukuda, 
 J. Hasegawa, M. Ishida, T. Nakajima, Y. Honda, O. Kitao, H. Nakai, 
 T. Vreven, K. Throssell, J. A. Montgomery, Jr., J. E. Peralta, 
 F. Ogliaro, M. J. Bearpark, J. J. Heyd, E. N. Brothers, K. N. Kudin, 
 V. N. Staroverov, T. A. Keith, R. Kobayashi, J. Normand, 
 K. Raghavachari, A. P. Rendell, J. C. Burant, S. S. Iyengar, 
 J. Tomasi, M. Cossi, J. M. Millam, M. Klene, C. Adamo, R. Cammi, 
 J. W. Ochterski, R. L. Martin, K. Morokuma, O. Farkas, 
 J. B. Foresman, and D. J. Fox, Gaussian, Inc., Wallingford CT, 2019.
 
 ******************************************
 Gaussian 16:  ES64L-G16RevC.01  3-Jul-2019
                17-Jul-2024 
 ******************************************
 %chk=a.chk
 %nprocshared=56
 Will use up to   56 processors via shared memory.
 %mem=96gb
 ----------------------------------------------------------------------
 # pbe1pbe em=gd3bj genecp g09default scf=(xqc,maxcycle=64) force guess
 =read nosymm
 ----------------------------------------------------------------------
 1/10=7,30=1,38=1,158=3,167=1/1,3;
 2/12=2,15=1,17=6,18=5,40=1/2;
 3/5=7,11=2,16=1,17=8,25=1,27=10,30=1,71=1,74=-13,75=-4,116=-2,124=41,158=3/1,2,3;
 4/5=1,60=-1/1;
 5/5=2,7=64,8=3,13=1,38=6,87=10/2,8;
 6/7=2,8=2,9=2,10=2,28=1,87=10/1;
 7/29=1,30=1,87=10/1,2,3,16;
 1/10=7,30=1,158=3,167=1/3;
 99//99;
 Using 2006 physical constants.
 ----------
 Title Card
 ----------
 Symbolic Z-matrix:
 Charge =  0 Multiplicity = 1
 6                     0.        0.82208   0.00012 
 6                    -1.29638   1.35642  0. 
 6                    -1.25137   2.74927  -0.00001 
 6                    0.         3.3819    0.00001 
 6                     1.25137   2.74927   0.00004 
 6                     1.29637   1.35642   0.00004 
 1                    -2.16085   3.33134  -0.00004 
 1                     0.        4.46593  -0.00001 
 1                     2.16086   3.33134   0.00005 
 6                     3.69552   0.58415  -0.00003 
 6                     1.91939  -0.90419   0.0001 
 6                     4.18167  -0.74479  -0.00009 
 6                     4.54537   1.66703  -0.00006 
 6                     5.54269  -1.00106  -0.00019 
 6                     5.92909   1.40528  -0.00017 
 1                     4.16972   2.68307   0.00001 
 6                     6.40693   0.1063   -0.00024 
 1                     5.91255  -2.01976  -0.00024 
 1                     6.61674   2.24362  -0.0002 
 1                     7.47569  -0.07124  -0.00033 
 6                    -3.69551   0.58414  -0.00004 
 6                    -1.91938  -0.9042    0.00007 
 6                    -4.18168  -0.7448   -0.00006 
 6                    -4.54538   1.66704  -0.00005 
 6                    -5.54267  -1.00107  -0.0001 
 6                    -5.92909   1.40527  -0.0001 
 1                    -4.16972   2.68306  -0.00002 
 6                    -6.40693   0.1063   -0.00013 
 1                    -5.91254  -2.01977  -0.0001 
 1                    -6.61674   2.24361  -0.00011 
 1                    -7.47568  -0.07125  -0.00015 
 7                    -2.31143   0.48204   0.00001 
 7                    -3.12016  -1.6062   -0.00004 
 7                     2.31143   0.48203   0.00008 
 7                     3.12017  -1.6062   -0.00003 
 6                     3.19598  -3.02864   0.00001 
 1                     3.71114  -3.39978  -0.8948 
 1                     3.71069  -3.3998    0.89508 
 1                     2.18468  -3.4461   -0.00027 
 6                    -3.19597  -3.02864   0.00005 
 1                    -3.71062  -3.39978   0.89516 
 1                    -3.71119  -3.39981  -0.89472 
 1                    -2.18467  -3.4461   -0.0003 
 27                    0.00001  -1.22966   0.00015 
 

 GradGradGradGradGradGradGradGradGradGradGradGradGradGradGradGradGradGrad
 Berny optimization.
 Initialization pass.
 Trust Radius=3.00D-01 FncErr=1.00D-07 GrdErr=1.00D-07 EigMax=2.50D+02 EigMin=1.00D-04
 Number of steps in this run=      2 maximum allowed number of steps=      2.
 GradGradGradGradGradGradGradGradGradGradGradGradGradGradGradGradGradGrad

                          Input orientation:                          
 ---------------------------------------------------------------------
 Center     Atomic      Atomic             Coordinates (Angstroms)
 Number     Number       Type             X           Y           Z
 ---------------------------------------------------------------------
      1          6           0        0.000005    0.822078    0.000117
      2          6           0       -1.296378    1.356420   -0.000000
      3          6           0       -1.251366    2.749269   -0.000006
      4          6           0       -0.000001    3.381900    0.000013
      5          6           0        1.251373    2.749265    0.000042
      6          6           0        1.296369    1.356423    0.000039
      7          1           0       -2.160854    3.331342   -0.000040
      8          1           0        0.000000    4.465928   -0.000012
      9          1           0        2.160856    3.331342    0.000051
     10          6           0        3.695524    0.584154   -0.000029
     11          6           0        1.919392   -0.904189    0.000097
     12          6           0        4.181669   -0.744789   -0.000088
     13          6           0        4.545367    1.667032   -0.000056
     14          6           0        5.542693   -1.001057   -0.000192
     15          6           0        5.929089    1.405281   -0.000171
     16          1           0        4.169720    2.683069    0.000008
     17          6           0        6.406934    0.106299   -0.000244
     18          1           0        5.912548   -2.019763   -0.000242
     19          1           0        6.616740    2.243616   -0.000195
     20          1           0        7.475688   -0.071236   -0.000329
     21          6           0       -3.695510    0.584139   -0.000042
     22          6           0       -1.919380   -0.904197    0.000073
     23          6           0       -4.181675   -0.744797   -0.000063
     24          6           0       -4.545375    1.667040   -0.000054
     25          6           0       -5.542674   -1.001066   -0.000097
     26          6           0       -5.929087    1.405271   -0.000100
     27          1           0       -4.169721    2.683061   -0.000024
     28          6           0       -6.406935    0.106296   -0.000126
     29          1           0       -5.912541   -2.019773   -0.000103
     30          1           0       -6.616743    2.243610   -0.000107
     31          1           0       -7.475681   -0.071247   -0.000154
     32          7           0       -2.311430    0.482036    0.000012
     33          7           0       -3.120163   -1.606204   -0.000040
     34          7           0        2.311434    0.482027    0.000075
     35          7           0        3.120171   -1.606199   -0.000032
     36          6           0        3.195978   -3.028639    0.000009
     37          1           0        3.711140   -3.399783   -0.894798
     38          1           0        3.710689   -3.399796    0.895075
     39          1           0        2.184681   -3.446095   -0.000271
     40          6           0       -3.195972   -3.028644    0.000047
     41          1           0       -3.710617   -3.399783    0.895157
     42          1           0       -3.711192   -3.399807   -0.894716
     43          1           0       -2.184672   -3.446096   -0.000299
     44         27           0        0.000011   -1.229660    0.000154
 ---------------------------------------------------------------------
                    Distance matrix (angstroms):
                    1          2          3          4          5
     1  C    0.000000
     2  C    1.402187   0.000000
     3  C    2.297824   1.393577   0.000000
     4  C    2.559822   2.404821   1.402189   0.000000
     5  C    2.297819   2.903627   2.502738   1.402200   0.000000
     6  C    1.402171   2.592747   2.903614   2.404814   1.393568
     7  H    3.311452   2.155838   1.079804   2.161444   3.461517
     8  H    3.643850   3.368923   2.124343   1.084028   2.124351
     9  H    3.311447   3.981556   3.461512   2.161449   1.079803
    10  C    3.703170   5.051285   5.399948   4.635115   3.265208
    11  C    2.581481   3.930843   4.837506   4.696236   3.714025
    12  C    4.465579   5.867204   6.459591   5.875026   4.560160
    13  C    4.623231   5.849997   5.896893   4.858101   3.467222
    14  C    5.834828   7.233988   7.760424   7.066242   5.699153
    15  C    5.957697   7.225632   7.305151   6.249890   4.866962
    16  H    4.566160   5.624787   5.421490   4.227877   2.919098
    17  C    6.446789   7.804090   8.101534   7.195720   5.793538
    18  H    6.560048   7.960354   8.606122   8.008509   6.668597
    19  H    6.767714   7.962697   7.884337   6.713937   5.389141
    20  H    7.528867   8.887482   9.171516   8.234687   6.833544
    21  C    3.703167   2.520368   3.265216   4.635111   5.399946
    22  C    2.581485   2.344892   3.714036   4.696237   4.837505
    23  C    4.465596   3.569321   4.560177   5.875034   6.459604
    24  C    4.623250   3.263812   3.467235   4.858104   5.896906
    25  C    5.834821   4.856827   5.699153   7.066231   7.760416
    26  C    5.957704   4.632966   4.866971   6.249890   7.305157
    27  H    4.566166   3.164819   2.919106   4.227876   5.421498
    28  C    6.446799   5.261236   5.793548   7.195720   8.101541
    29  H    6.560055   5.719059   6.668607   8.008508   8.606125
    30  H    6.767725   5.393829   5.389153   6.713939   7.884347
    31  H    7.528872   6.342084   6.833551   8.234684   9.171519
    32  N    2.336313   1.339730   2.502815   3.708358   4.223019
    33  N    3.953733   3.478984   4.739468   5.883587   6.170935
    34  N    2.336309   3.712259   4.223024   3.708368   2.502818
    35  N    3.953728   5.318178   6.170935   5.883588   4.739460
    36  C    5.004225   6.277738   7.291302   7.163051   6.096365
    37  H    5.691881   6.964005   7.952230   7.782318   6.682962
    38  H    5.691603   6.963725   7.951991   7.782144   6.682834
    39  H    4.794801   5.931435   7.084417   7.168986   6.265266
    40  C    5.004231   4.778832   6.096374   7.163051   7.291303
    41  H    5.691566   5.408449   6.682820   7.782106   7.951941
    42  H    5.691926   5.408653   6.682992   7.782354   7.952278
    43  H    4.794802   4.883976   6.265270   7.168983   7.084412
    44  Co   2.051738   2.892824   4.171070   4.611560   4.171061
                    6          7          8          9         10
     6  C    0.000000
     7  H    3.981544   0.000000
     8  H    3.368916   2.440610   0.000000
     9  H    2.155839   4.321710   2.440611   0.000000
    10  C    2.520386   6.468709   5.359577   3.146784   0.000000
    11  C    2.344894   5.881167   5.702826   4.242409   2.317286
    12  C    3.569321   7.539393   6.681163   4.549564   1.415072
    13  C    3.263811   6.909654   5.337994   2.907889   1.376538
    14  C    4.856849   8.838230   7.785202   5.496044   2.434117
    15  C    4.632977   8.316061   6.672455   4.231936   2.379718
    16  H    3.164828   6.363680   4.534882   2.110875   2.151814
    17  C    5.261244   9.154665   7.749527   5.331987   2.753196
    18  H    5.719069   9.685770   8.776242   6.535253   3.419881
    19  H    5.393835   8.844733   6.979965   4.586725   3.359660
    20  H    6.342097  10.219612   8.744814   6.310703   3.836557
    21  C    5.051265   3.146791   5.359579   6.468706   7.391034
    22  C    3.930833   4.242416   5.702829   5.881166   5.808815
    23  C    5.867205   4.549574   6.681172   7.539404   7.988516
    24  C    5.849996   2.907893   5.337997   6.909663   8.311743
    25  C    7.233966   5.496041   7.785195   8.838220   9.373218
    26  C    7.225621   4.231941   6.672458   8.316064   9.659574
    27  H    5.624776   2.110880   4.534885   6.363684   8.140485
    28  C    7.804083   5.331991   7.749530   9.154669  10.113754
    29  H    7.960345   6.535257   8.776244   9.685772   9.954665
    30  H    7.962691   4.586732   6.979971   8.844739  10.444934
    31  H    8.887469   6.310705   8.744814  10.219612  11.190415
    32  N    3.712245   2.853281   4.605877   5.302819   6.007822
    33  N    5.318169   5.029874   6.826874   7.229698   7.158999
    34  N    1.339748   5.302825   4.605887   2.853291   1.387853
    35  N    3.478992   7.229698   6.826873   5.029871   2.264659
    36  C    4.778837   8.315347   8.147565   6.443666   3.647166
    37  H    5.408636   8.977134   8.743146   6.965068   4.083211
    38  H    5.408480   8.976885   8.742997   6.965003   4.083295
    39  H    4.883982   8.050921   8.208102   6.777479   4.304133
    40  C    6.277734   6.443670   8.147567   8.315349   7.781069
    41  H    6.963666   6.964997   8.742964   8.976829   8.457188
    42  H    6.964049   6.965081   8.743182   8.977189   8.457650
    43  H    5.931428   6.777479   8.208101   8.050918   7.128788
    44  Co   2.892814   5.046986   5.695588   5.046979   4.116642
                   11         12         13         14         15
    11  C    0.000000
    12  C    2.267886   0.000000
    13  C    3.675177   2.439089   0.000000
    14  C    3.624596   1.384940   2.848395   0.000000
    15  C    4.627237   2.770610   1.408261   2.437163   0.000000
    16  H    4.234666   3.427879   1.083255   3.931645   2.174423
    17  C    4.599905   2.382468   2.429263   1.404688   1.384085
    18  H    4.146059   2.149768   3.932130   1.083769   3.425085
    19  H    5.654534   3.854884   2.150124   3.417817   1.084283
    20  H    5.618384   3.362176   3.407104   2.145002   2.138241
    21  C    5.808807   7.988492   8.311721   9.373220   9.659564
    22  C    3.838771   6.103131   6.957310   7.462702   8.181207
    23  C    6.103149   8.363345   9.054180   9.727745  10.336846
    24  C    6.957329   9.054183   9.090742  10.434935  10.477734
    25  C    7.462694   9.727719  10.434908  11.085367  11.721426
    26  C    8.181211  10.336834  10.477724  11.721439  11.858175
    27  H    7.067224   9.027507   8.774114  10.387671  10.179326
    28  C    8.387419  10.622753  11.062947  12.000827  12.404226
    29  H    7.910986  10.174413  11.088750  11.500443  12.327011
    30  H    9.098035  11.204296  11.176992  12.584902  12.573810
    31  H    9.431924  11.676792  12.146078  13.051537  13.485844
    32  N    4.452131   6.607983   6.958439   7.992923   8.292076
    33  N    5.088215   7.352468   8.335132   8.683967   9.537190
    34  N    1.440588   2.236707   2.528773   3.555358   3.733607
    35  N    1.390931   1.367043   3.570045   2.496960   4.118135
    36  C    2.478499   2.487479   4.885710   3.101316   5.208602
    37  H    3.199873   2.840932   5.212399   3.147823   5.367336
    38  H    3.199654   2.841161   5.212551   3.148284   5.367637
    39  H    2.555712   3.359318   5.631776   4.153849   6.128331
    40  C    5.538976   7.723055   9.054153   8.970807  10.145266
    41  H    6.223031   8.374881   9.728067   9.601004  10.808061
    42  H    6.223525   8.375365   9.728516   9.601487  10.808519
    43  H    4.827486   6.915732   8.452070   8.104960   9.453516
    44  Co   1.946781   4.209676   5.389906   5.547395   6.488211
                   16         17         18         19         20
    16  H    0.000000
    17  C    3.412458   0.000000
    18  H    5.015384   2.182787   0.000000
    19  H    2.486166   2.147589   4.321144   0.000000
    20  H    4.302977   1.083399   2.498032   2.469075   0.000000
    21  C    8.140477  10.113739   9.954652  10.444920  11.190406
    22  C    7.067221   8.387408   7.910979   9.098025   9.431920
    23  C    9.027517  10.622759  10.174423  11.204302  11.676806
    24  C    8.774121  11.062956  11.088764  11.176997  12.146092
    25  C   10.387658  12.000808  11.500428  12.584884  13.051525
    26  C   10.179326  12.404222  12.327010  12.573805  13.485846
    27  H    8.339441  10.886016  11.125139  10.795409  11.966691
    28  C   10.886018  12.813869  12.501592  13.197887  13.883757
    29  H   11.125139  12.501586  11.825090  13.234779  13.529282
    30  H   10.795412  13.197889  13.234784  13.233483  14.281286
    31  H   11.966689  13.883751  13.529280  14.281279  14.951369
    32  N    6.844695   8.726457   8.596093   9.100295   9.802744
    33  N    8.458148   9.679785   9.042174  10.470358  10.706455
    34  N    2.880592   4.112699   4.384858   4.651758   5.193806
    35  N    4.415809   3.706139   2.822837   5.200680   4.618077
    36  C    5.794115   4.487546   2.897858   6.284765   5.202128
    37  H    6.165392   4.512221   2.747887   6.410208   5.104029
    38  H    6.165476   4.512653   2.748502   6.410517   5.104534
    39  H    6.442595   5.517873   3.991418   7.212209   6.275701
    40  C    9.320788  10.101667   9.164223  11.139391  11.073869
    41  H    9.995103  10.745194   9.762761  11.802707  11.705320
    42  H    9.995533  10.745666   9.763246  11.803159  11.705792
    43  H    8.828644   9.297053   8.221885  10.480346  10.232899
    44  Co   5.718035   6.544728   5.965096   7.472935   7.564899
                   21         22         23         24         25
    21  C    0.000000
    22  C    2.317279   0.000000
    23  C    1.415071   2.267904   0.000000
    24  C    1.376570   3.675202   2.439105   0.000000
    25  C    2.434109   3.624588   1.384915   2.848402   0.000000
    26  C    2.379731   4.627244   2.770602   1.408254   2.437165
    27  H    2.151825   4.234673   3.427879   1.083243   3.931640
    28  C    2.753209   4.599918   2.382465   2.429264   1.404706
    29  H    3.419880   4.146064   2.149758   3.932140   1.083773
    30  H    3.359679   5.654548   3.854884   2.150116   3.417828
    31  H    3.836564   5.618389   3.362164   3.407101   2.145013
    32  N    1.387841   1.440606   2.236724   2.528783   3.555352
    33  N    2.264647   1.390933   1.367052   3.570064   2.496948
    34  N    6.007812   4.452123   6.607993   6.958454   7.992908
    35  N    7.158987   5.088210   7.352481   8.335148   8.683954
    36  C    7.781052   5.538966   7.723063   9.054168   8.970791
    37  H    8.457582   6.223463   8.375323   9.728479   9.601427
    38  H    8.457231   6.223080   8.374945   9.728138   9.601040
    39  H    7.128775   4.827480   6.915744   8.452089   8.104948
    40  C    3.647154   2.478500   2.487482   4.885727   3.101303
    41  H    4.083288   3.199634   2.841174   5.212573   3.148294
    42  H    4.083198   3.199891   2.840922   5.212410   3.147797
    43  H    4.304117   2.555705   3.359322   5.631792   4.153835
    44  Co   4.116642   1.946789   4.209702   5.389935   5.547396
                   26         27         28         29         30
    26  C    0.000000
    27  H    2.174423   0.000000
    28  C    1.384079   3.412455   0.000000
    29  H    3.425083   5.015383   2.182794   0.000000
    30  H    1.084290   2.486169   2.147587   4.321149   0.000000
    31  H    2.138238   4.302975   1.083393   2.498031   2.469076
    32  N    3.733604   2.880583   4.112705   4.384866   4.651759
    33  N    4.118135   4.415810   3.706147   2.822838   5.200687
    34  N    8.292078   6.844700   8.726461   8.596090   9.100303
    35  N    9.537191   8.458149   9.679793   9.042175  10.470364
    36  C   10.145263   9.320786  10.101671   9.164221  11.139394
    37  H   10.808469   9.995478  10.745625   9.763204  11.803115
    38  H   10.808112   9.995160  10.745249   9.762806  11.802764
    39  H    9.453517   8.828646   9.297061   8.221886  10.480354
    40  C    5.208600   5.794114   4.487552   2.897856   6.284770
    41  H    5.367647   6.165478   4.512677   2.748525   6.410534
    42  H    5.367324   6.165388   4.512214   2.747866   6.410203
    43  H    6.128328   6.442592   5.517879   3.991417   7.212212
    44  Co   6.488224   5.718046   6.544748   5.965111   7.472953
                   31         32         33         34         35
    31  H    0.000000
    32  N    5.193805   0.000000
    33  N    4.618077   2.239374   0.000000
    34  N    9.802741   4.622864   5.819189   0.000000
    35  N   10.706454   5.819194   6.240334   2.239363   0.000000
    36  C   11.073865   6.531185   6.474331   3.620386   1.424458
    37  H   11.705747   7.220842   7.119285   4.222372   2.089687
    38  H   11.705364   7.220504   7.118900   4.222261   2.089717
    39  H   10.232898   5.970363   5.614852   3.930167   2.064064
    40  C    5.202125   3.620399   1.424458   6.531181   6.474335
    41  H    5.104551   4.222266   2.089722   7.220437   7.118846
    42  H    5.104011   4.222390   2.089682   7.220894   7.119340
    43  H    6.275698   3.930177   2.064060   5.970353   5.614853
    44  Co   7.564912   2.876223   3.142812   2.876204   3.142799
                   36         37         38         39         40
    36  C    0.000000
    37  H    1.097187   0.000000
    38  H    1.097191   1.789873   0.000000
    39  H    1.094071   1.769859   1.769884   0.000000
    40  C    6.391950   6.974718   6.974296   5.396823   0.000000
    41  H    6.974245   7.634554   7.421306   5.963093   1.097190
    42  H    6.974761   7.422332   7.634636   5.963513   1.097185
    43  H    5.396820   5.963461   5.963147   4.369353   1.094073
    44  Co   3.667497   4.391225   4.390844   3.112133   3.667512
                   41         42         43         44
    41  H    0.000000
    42  H    1.789873   0.000000
    43  H    1.769886   1.769855   0.000000
    44  Co   4.390811   4.391281   3.112141   0.000000
 Symmetry turned off by external request.
 Stoichiometry    C22H17CoN4
 Framework group  C1[X(C22H17CoN4)]
 Deg. of freedom   126
 Full point group                 C1      NOp   1
 Rotational constants (GHZ):           0.4647009           0.1005249           0.0827340
 General basis read from cards:  (5D, 7F)
 ======================================================================================================
                                       Pseudopotential Parameters
 ======================================================================================================
  Center     Atomic      Valence      Angular      Power
  Number     Number     Electrons     Momentum     of R      Exponent        Coefficient   SO-Coeffient
 ======================================================================================================
    1          6
                                   No pseudopotential on this center.
    2          6
                                   No pseudopotential on this center.
    3          6
                                   No pseudopotential on this center.
    4          6
                                   No pseudopotential on this center.
    5          6
                                   No pseudopotential on this center.
    6          6
                                   No pseudopotential on this center.
    7          1
                                   No pseudopotential on this center.
    8          1
                                   No pseudopotential on this center.
    9          1
                                   No pseudopotential on this center.
   10          6
                                   No pseudopotential on this center.
   11          6
                                   No pseudopotential on this center.
   12          6
                                   No pseudopotential on this center.
   13          6
                                   No pseudopotential on this center.
   14          6
                                   No pseudopotential on this center.
   15          6
                                   No pseudopotential on this center.
   16          1
                                   No pseudopotential on this center.
   17          6
                                   No pseudopotential on this center.
   18          1
                                   No pseudopotential on this center.
   19          1
                                   No pseudopotential on this center.
   20          1
                                   No pseudopotential on this center.
   21          6
                                   No pseudopotential on this center.
   22          6
                                   No pseudopotential on this center.
   23          6
                                   No pseudopotential on this center.
   24          6
                                   No pseudopotential on this center.
   25          6
                                   No pseudopotential on this center.
   26          6
                                   No pseudopotential on this center.
   27          1
                                   No pseudopotential on this center.
   28          6
                                   No pseudopotential on this center.
   29          1
                                   No pseudopotential on this center.
   30          1
                                   No pseudopotential on this center.
   31          1
                                   No pseudopotential on this center.
   32          7
                                   No pseudopotential on this center.
   33          7
                                   No pseudopotential on this center.
   34          7
                                   No pseudopotential on this center.
   35          7
                                   No pseudopotential on this center.
   36          6
                                   No pseudopotential on this center.
   37          1
                                   No pseudopotential on this center.
   38          1
                                   No pseudopotential on this center.
   39          1
                                   No pseudopotential on this center.
   40          6
                                   No pseudopotential on this center.
   41          1
                                   No pseudopotential on this center.
   42          1
                                   No pseudopotential on this center.
   43          1
                                   No pseudopotential on this center.
   44         27           17
                                      F and up 
                                                     2        1.0000000        0.00000000    0.00000000
                                      S - F
                                                     2       23.6600000      283.96056600    0.00000000
                                                     2       10.6100000       47.15684600    0.00000000
                                      P - F
                                                     2       25.0400000      182.21223600    0.00000000
                                                     2       10.4400000       35.23335200    0.00000000
                                      D - F
                                                     2       29.5400000      -26.47533300    0.00000000
                                                     2       10.1800000       -1.82578700    0.00000000
 ======================================================================================================
   441 basis functions,   871 primitive gaussians,   473 cartesian basis functions
    97 alpha electrons       97 beta electrons
       nuclear repulsion energy      2487.4348247950 Hartrees.
 NAtoms=   44 NActive=   44 NUniq=   44 SFac= 1.00D+00 NAtFMM=   60 NAOKFM=F Big=F
 Integral buffers will be    131072 words long.
 Raffenetti 2 integral format.
 Two-electron integral symmetry is turned off.
 Nuclear repulsion after empirical dispersion term =     2487.3757059174 Hartrees.
 One-electron integrals computed using PRISM.
   1 Symmetry operations used in ECPInt.
 ECPInt:  NShTT=   11781 NPrTT=   71406 LenC2=    9522 LenP2D=   32051.
 LDataN:  DoStor=T MaxTD1= 6 Len=  172
 NBasis=   441 RedAO= T EigKep=  3.16D-04  NBF=   441
 NBsUse=   441 1.00D-06 EigRej= -1.00D+00 NBFU=   441
 Initial guess from the checkpoint file:  "a.chk"
 B after Tr=     0.000000   -0.002191    0.000001
         Rot=    1.000000    0.000001    0.000000    0.000000 Ang=   0.00 deg.
 Initial guess <Sx>= 0.0000 <Sy>= 0.0000 <Sz>= 0.0000 <S**2>= 0.0000 S= 0.0000
 Requested convergence on RMS density matrix=1.00D-08 within  64 cycles.
 Requested convergence on MAX density matrix=1.00D-06.
 Requested convergence on             energy=1.00D-06.
 No special actions if energy rises.
 EnCoef did     3 forward-backward iterations
 EnCoef did     8 forward-backward iterations
 SCF Done:  E(UPBE1PBE) =  -1212.10538957     A.U. after   20 cycles
            NFock= 20  Conv=0.49D-08     -V/T= 2.0551
 <Sx>= 0.0000 <Sy>= 0.0000 <Sz>= 0.0000 <S**2>= 0.0000 S= 0.0000
 <L.S>=  0.00000000000    
 Annihilation of the first spin contaminant:
 S**2 before annihilation     0.0000,   after     0.0000
 QCSCF skips out because SCF is already converged.

 **********************************************************************

            Population analysis using the SCF Density.

 **********************************************************************

 Alpha  occ. eigenvalues --  -14.45860 -14.45860 -14.45212 -14.45212 -10.28402
 Alpha  occ. eigenvalues --  -10.28402 -10.27641 -10.27640 -10.27441 -10.27441
 Alpha  occ. eigenvalues --  -10.27361 -10.27360 -10.25202 -10.25201 -10.24093
 Alpha  occ. eigenvalues --  -10.24093 -10.23882 -10.23882 -10.23436 -10.23436
 Alpha  occ. eigenvalues --  -10.23380 -10.23380 -10.21315 -10.21311 -10.20929
 Alpha  occ. eigenvalues --  -10.19255  -3.83122  -2.34838  -2.34787  -2.31092
 Alpha  occ. eigenvalues --   -1.06040  -1.05974  -0.97464  -0.97151  -0.88301
 Alpha  occ. eigenvalues --   -0.88041  -0.85040  -0.80552  -0.78936  -0.78055
 Alpha  occ. eigenvalues --   -0.77908  -0.75582  -0.75084  -0.73127  -0.71691
 Alpha  occ. eigenvalues --   -0.66730  -0.65361  -0.64569  -0.64233  -0.62661
 Alpha  occ. eigenvalues --   -0.61558  -0.58939  -0.57287  -0.56756  -0.54199
 Alpha  occ. eigenvalues --   -0.53315  -0.52057  -0.49850  -0.49792  -0.49112
 Alpha  occ. eigenvalues --   -0.48750  -0.47903  -0.47428  -0.46690  -0.46301
 Alpha  occ. eigenvalues --   -0.45790  -0.45397  -0.45023  -0.44795  -0.44250
 Alpha  occ. eigenvalues --   -0.42517  -0.41938  -0.40996  -0.38665  -0.38393
 Alpha  occ. eigenvalues --   -0.38218  -0.37597  -0.37010  -0.36918  -0.36389
 Alpha  occ. eigenvalues --   -0.35111  -0.34688  -0.34458  -0.34004  -0.31670
 Alpha  occ. eigenvalues --   -0.28961  -0.26721  -0.25890  -0.24766  -0.24450
 Alpha  occ. eigenvalues --   -0.21498  -0.21255  -0.20351  -0.20175  -0.16342
 Alpha  occ. eigenvalues --   -0.15289  -0.14906
 Alpha virt. eigenvalues --   -0.04653  -0.02492  -0.00667  -0.00094   0.00830
 Alpha virt. eigenvalues --    0.01312   0.02056   0.03292   0.05428   0.05883
 Alpha virt. eigenvalues --    0.06198   0.07300   0.09035   0.09334   0.10132
 Alpha virt. eigenvalues --    0.10537   0.12667   0.13132   0.14219   0.14227
 Alpha virt. eigenvalues --    0.15319   0.15626   0.15885   0.16048   0.16511
 Alpha virt. eigenvalues --    0.16835   0.17121   0.17622   0.17892   0.18315
 Alpha virt. eigenvalues --    0.19267   0.19311   0.19757   0.20344   0.22149
 Alpha virt. eigenvalues --    0.22355   0.22358   0.22781   0.22973   0.23910
 Alpha virt. eigenvalues --    0.25963   0.26251   0.26722   0.27669   0.27914
 Alpha virt. eigenvalues --    0.28615   0.29393   0.29443   0.31176   0.31234
 Alpha virt. eigenvalues --    0.31739   0.33396   0.33800   0.34541   0.34761
 Alpha virt. eigenvalues --    0.36281   0.37685   0.38113   0.39642   0.39658
 Alpha virt. eigenvalues --    0.41448   0.43054   0.44580   0.45227   0.46250
 Alpha virt. eigenvalues --    0.47314   0.48247   0.50088   0.51459   0.51786
 Alpha virt. eigenvalues --    0.52625   0.53522   0.53741   0.56013   0.56021
 Alpha virt. eigenvalues --    0.56886   0.56994   0.57026   0.58072   0.58476
 Alpha virt. eigenvalues --    0.58711   0.59110   0.59309   0.60109   0.61433
 Alpha virt. eigenvalues --    0.61541   0.61945   0.63028   0.63240   0.63359
 Alpha virt. eigenvalues --    0.63361   0.63381   0.63420   0.64213   0.64822
 Alpha virt. eigenvalues --    0.65286   0.66163   0.66447   0.67033   0.67132
 Alpha virt. eigenvalues --    0.67704   0.68411   0.68547   0.69855   0.70923
 Alpha virt. eigenvalues --    0.72379   0.73197   0.73961   0.75664   0.76253
 Alpha virt. eigenvalues --    0.76574   0.77295   0.78305   0.79723   0.80063
 Alpha virt. eigenvalues --    0.81049   0.81821   0.82740   0.83439   0.83871
 Alpha virt. eigenvalues --    0.84264   0.84507   0.85064   0.86777   0.86777
 Alpha virt. eigenvalues --    0.87061   0.87450   0.87836   0.90028   0.90198
 Alpha virt. eigenvalues --    0.90448   0.91664   0.91679   0.92493   0.92962
 Alpha virt. eigenvalues --    0.93614   0.93730   0.95730   0.95789   0.95913
 Alpha virt. eigenvalues --    0.95959   0.97280   0.97825   0.98096   0.98355
 Alpha virt. eigenvalues --    0.98402   1.00124   1.00410   1.01805   1.02002
 Alpha virt. eigenvalues --    1.02813   1.03367   1.04170   1.06589   1.07315
 Alpha virt. eigenvalues --    1.09329   1.10048   1.11130   1.11201   1.13996
 Alpha virt. eigenvalues --    1.15134   1.15843   1.16155   1.16986   1.18604
 Alpha virt. eigenvalues --    1.18657   1.19421   1.20051   1.23745   1.24157
 Alpha virt. eigenvalues --    1.24578   1.25866   1.27105   1.27274   1.27732
 Alpha virt. eigenvalues --    1.29107   1.29235   1.30292   1.32925   1.33439
 Alpha virt. eigenvalues --    1.33927   1.35930   1.36118   1.36997   1.38974
 Alpha virt. eigenvalues --    1.40558   1.41892   1.42754   1.42979   1.43361
 Alpha virt. eigenvalues --    1.44860   1.45342   1.45361   1.46560   1.47989
 Alpha virt. eigenvalues --    1.48004   1.49282   1.49915   1.49948   1.51206
 Alpha virt. eigenvalues --    1.51341   1.51927   1.53398   1.54436   1.57460
 Alpha virt. eigenvalues --    1.57608   1.59666   1.61992   1.65802   1.66316
 Alpha virt. eigenvalues --    1.66321   1.70297   1.72494   1.72735   1.77157
 Alpha virt. eigenvalues --    1.77686   1.78523   1.79970   1.80113   1.82098
 Alpha virt. eigenvalues --    1.83003   1.86298   1.86893   1.87364   1.87716
 Alpha virt. eigenvalues --    1.88187   1.89221   1.90244   1.91546   1.91928
 Alpha virt. eigenvalues --    1.93668   1.95287   1.95299   1.96693   1.97204
 Alpha virt. eigenvalues --    1.98279   1.98613   1.98896   1.98924   1.99303
 Alpha virt. eigenvalues --    1.99810   2.00055   2.01604   2.02876   2.03992
 Alpha virt. eigenvalues --    2.06380   2.07273   2.07712   2.09120   2.10267
 Alpha virt. eigenvalues --    2.12627   2.13109   2.14228   2.15076   2.15271
 Alpha virt. eigenvalues --    2.16322   2.16650   2.16793   2.19187   2.20032
 Alpha virt. eigenvalues --    2.20453   2.21462   2.21746   2.21931   2.23133
 Alpha virt. eigenvalues --    2.24699   2.25503   2.25689   2.26978   2.27774
 Alpha virt. eigenvalues --    2.27998   2.28260   2.28533   2.28816   2.29304
 Alpha virt. eigenvalues --    2.32911   2.34773   2.39483   2.39808   2.40546
 Alpha virt. eigenvalues --    2.40762   2.44307   2.44506   2.46699   2.46968
 Alpha virt. eigenvalues --    2.52023   2.52037   2.52486   2.57517   2.58944
 Alpha virt. eigenvalues --    2.59093   2.59466   2.60511   2.61796   2.61848
 Alpha virt. eigenvalues --    2.64669   2.64930   2.66360   2.68596   2.69154
 Alpha virt. eigenvalues --    2.70105   2.70169   2.72646   2.73856   2.75464
 Alpha virt. eigenvalues --    2.75801   2.76008   2.77618   2.78964   2.79497
 Alpha virt. eigenvalues --    2.80319   2.83935   2.85686   2.88554   2.88983
 Alpha virt. eigenvalues --    2.93831   2.94535   2.97749   2.98911   3.00798
 Alpha virt. eigenvalues --    3.01581   3.06443   3.07052   3.16130   3.19861
 Alpha virt. eigenvalues --    3.20482   3.30808   3.39659   3.47528   3.48247
 Alpha virt. eigenvalues --    3.52701   3.53892   3.61728   5.66744   5.67127
 Alpha virt. eigenvalues --    5.67573   5.68376   5.68779   5.69774   5.71879
 Alpha virt. eigenvalues --   45.82113  45.96469  46.02351  63.11773
  Beta  occ. eigenvalues --  -14.45860 -14.45860 -14.45212 -14.45212 -10.28402
  Beta  occ. eigenvalues --  -10.28402 -10.27641 -10.27640 -10.27441 -10.27441
  Beta  occ. eigenvalues --  -10.27361 -10.27360 -10.25202 -10.25201 -10.24093
  Beta  occ. eigenvalues --  -10.24093 -10.23882 -10.23882 -10.23436 -10.23436
  Beta  occ. eigenvalues --  -10.23380 -10.23380 -10.21315 -10.21311 -10.20929
  Beta  occ. eigenvalues --  -10.19255  -3.83122  -2.34838  -2.34787  -2.31092
  Beta  occ. eigenvalues --   -1.06040  -1.05974  -0.97464  -0.97151  -0.88301
  Beta  occ. eigenvalues --   -0.88041  -0.85040  -0.80552  -0.78936  -0.78055
  Beta  occ. eigenvalues --   -0.77908  -0.75582  -0.75084  -0.73127  -0.71691
  Beta  occ. eigenvalues --   -0.66730  -0.65361  -0.64569  -0.64233  -0.62661
  Beta  occ. eigenvalues --   -0.61558  -0.58939  -0.57287  -0.56756  -0.54199
  Beta  occ. eigenvalues --   -0.53315  -0.52057  -0.49850  -0.49792  -0.49112
  Beta  occ. eigenvalues --   -0.48750  -0.47903  -0.47428  -0.46690  -0.46301
  Beta  occ. eigenvalues --   -0.45790  -0.45397  -0.45023  -0.44795  -0.44250
  Beta  occ. eigenvalues --   -0.42517  -0.41938  -0.40996  -0.38665  -0.38393
  Beta  occ. eigenvalues --   -0.38218  -0.37597  -0.37010  -0.36918  -0.36389
  Beta  occ. eigenvalues --   -0.35111  -0.34688  -0.34458  -0.34004  -0.31670
  Beta  occ. eigenvalues --   -0.28961  -0.26721  -0.25890  -0.24766  -0.24450
  Beta  occ. eigenvalues --   -0.21498  -0.21255  -0.20351  -0.20175  -0.16342
  Beta  occ. eigenvalues --   -0.15289  -0.14906
  Beta virt. eigenvalues --   -0.04653  -0.02492  -0.00667  -0.00094   0.00830
  Beta virt. eigenvalues --    0.01312   0.02056   0.03292   0.05428   0.05883
  Beta virt. eigenvalues --    0.06198   0.07300   0.09035   0.09334   0.10132
  Beta virt. eigenvalues --    0.10537   0.12667   0.13132   0.14219   0.14227
  Beta virt. eigenvalues --    0.15319   0.15626   0.15885   0.16048   0.16511
  Beta virt. eigenvalues --    0.16835   0.17121   0.17622   0.17892   0.18315
  Beta virt. eigenvalues --    0.19267   0.19311   0.19757   0.20344   0.22149
  Beta virt. eigenvalues --    0.22355   0.22358   0.22781   0.22973   0.23910
  Beta virt. eigenvalues --    0.25963   0.26251   0.26722   0.27669   0.27914
  Beta virt. eigenvalues --    0.28615   0.29393   0.29443   0.31176   0.31234
  Beta virt. eigenvalues --    0.31739   0.33396   0.33800   0.34541   0.34761
  Beta virt. eigenvalues --    0.36281   0.37685   0.38113   0.39642   0.39658
  Beta virt. eigenvalues --    0.41448   0.43054   0.44580   0.45227   0.46250
  Beta virt. eigenvalues --    0.47314   0.48247   0.50088   0.51459   0.51786
  Beta virt. eigenvalues --    0.52625   0.53522   0.53741   0.56013   0.56021
  Beta virt. eigenvalues --    0.56886   0.56994   0.57026   0.58072   0.58476
  Beta virt. eigenvalues --    0.58711   0.59110   0.59309   0.60109   0.61433
  Beta virt. eigenvalues --    0.61541   0.61945   0.63028   0.63240   0.63359
  Beta virt. eigenvalues --    0.63361   0.63381   0.63420   0.64213   0.64822
  Beta virt. eigenvalues --    0.65286   0.66163   0.66447   0.67033   0.67132
  Beta virt. eigenvalues --    0.67704   0.68411   0.68547   0.69855   0.70923
  Beta virt. eigenvalues --    0.72379   0.73197   0.73961   0.75664   0.76253
  Beta virt. eigenvalues --    0.76574   0.77295   0.78305   0.79723   0.80063
  Beta virt. eigenvalues --    0.81049   0.81821   0.82740   0.83439   0.83871
  Beta virt. eigenvalues --    0.84264   0.84507   0.85064   0.86777   0.86777
  Beta virt. eigenvalues --    0.87061   0.87450   0.87836   0.90028   0.90198
  Beta virt. eigenvalues --    0.90448   0.91664   0.91679   0.92493   0.92962
  Beta virt. eigenvalues --    0.93614   0.93730   0.95730   0.95789   0.95913
  Beta virt. eigenvalues --    0.95959   0.97280   0.97825   0.98096   0.98355
  Beta virt. eigenvalues --    0.98402   1.00124   1.00410   1.01805   1.02002
  Beta virt. eigenvalues --    1.02813   1.03367   1.04170   1.06589   1.07315
  Beta virt. eigenvalues --    1.09329   1.10048   1.11130   1.11201   1.13996
  Beta virt. eigenvalues --    1.15134   1.15843   1.16155   1.16986   1.18604
  Beta virt. eigenvalues --    1.18657   1.19421   1.20051   1.23745   1.24157
  Beta virt. eigenvalues --    1.24578   1.25866   1.27105   1.27274   1.27732
  Beta virt. eigenvalues --    1.29107   1.29235   1.30292   1.32925   1.33439
  Beta virt. eigenvalues --    1.33927   1.35930   1.36118   1.36997   1.38974
  Beta virt. eigenvalues --    1.40558   1.41892   1.42754   1.42979   1.43361
  Beta virt. eigenvalues --    1.44860   1.45342   1.45361   1.46560   1.47989
  Beta virt. eigenvalues --    1.48004   1.49282   1.49915   1.49948   1.51206
  Beta virt. eigenvalues --    1.51341   1.51927   1.53398   1.54436   1.57460
  Beta virt. eigenvalues --    1.57608   1.59666   1.61992   1.65802   1.66316
  Beta virt. eigenvalues --    1.66321   1.70297   1.72494   1.72735   1.77157
  Beta virt. eigenvalues --    1.77686   1.78523   1.79970   1.80113   1.82098
  Beta virt. eigenvalues --    1.83003   1.86298   1.86893   1.87364   1.87716
  Beta virt. eigenvalues --    1.88187   1.89221   1.90244   1.91546   1.91928
  Beta virt. eigenvalues --    1.93668   1.95287   1.95299   1.96693   1.97204
  Beta virt. eigenvalues --    1.98279   1.98613   1.98896   1.98924   1.99303
  Beta virt. eigenvalues --    1.99810   2.00055   2.01604   2.02876   2.03992
  Beta virt. eigenvalues --    2.06380   2.07273   2.07712   2.09120   2.10267
  Beta virt. eigenvalues --    2.12627   2.13109   2.14228   2.15076   2.15271
  Beta virt. eigenvalues --    2.16322   2.16650   2.16793   2.19187   2.20032
  Beta virt. eigenvalues --    2.20453   2.21462   2.21746   2.21931   2.23133
  Beta virt. eigenvalues --    2.24699   2.25503   2.25689   2.26978   2.27774
  Beta virt. eigenvalues --    2.27998   2.28260   2.28533   2.28816   2.29304
  Beta virt. eigenvalues --    2.32911   2.34773   2.39483   2.39808   2.40546
  Beta virt. eigenvalues --    2.40762   2.44307   2.44506   2.46699   2.46968
  Beta virt. eigenvalues --    2.52023   2.52037   2.52486   2.57517   2.58944
  Beta virt. eigenvalues --    2.59093   2.59466   2.60511   2.61796   2.61848
  Beta virt. eigenvalues --    2.64669   2.64930   2.66360   2.68596   2.69154
  Beta virt. eigenvalues --    2.70105   2.70169   2.72646   2.73856   2.75464
  Beta virt. eigenvalues --    2.75801   2.76008   2.77618   2.78964   2.79497
  Beta virt. eigenvalues --    2.80319   2.83935   2.85686   2.88554   2.88983
  Beta virt. eigenvalues --    2.93831   2.94535   2.97749   2.98911   3.00798
  Beta virt. eigenvalues --    3.01581   3.06443   3.07052   3.16130   3.19861
  Beta virt. eigenvalues --    3.20482   3.30808   3.39659   3.47528   3.48247
  Beta virt. eigenvalues --    3.52701   3.53892   3.61728   5.66744   5.67127
  Beta virt. eigenvalues --    5.67573   5.68376   5.68779   5.69774   5.71879
  Beta virt. eigenvalues --   45.82113  45.96469  46.02351  63.11773
          Condensed to atoms (all electrons):
               1          2          3          4          5          6
     1  C    5.110582   0.522380  -0.060774  -0.063187  -0.060776   0.522387
     2  C    0.522380   4.622288   0.518423  -0.019987  -0.040434  -0.019091
     3  C   -0.060774   0.518423   5.052875   0.538651  -0.029131  -0.040434
     4  C   -0.063187  -0.019987   0.538651   4.910155   0.538646  -0.019986
     5  C   -0.060776  -0.040434  -0.029131   0.538646   5.052887   0.518424
     6  C    0.522387  -0.019091  -0.040434  -0.019986   0.518424   4.622270
     7  H    0.006830  -0.041197   0.338767  -0.040110   0.003879   0.000918
     8  H    0.001712   0.002933  -0.036854   0.364473  -0.036854   0.002933
     9  H    0.006830   0.000918   0.003879  -0.040110   0.338767  -0.041196
    10  C    0.005700  -0.000039   0.000003   0.000133  -0.004995  -0.047680
    11  C    0.005195   0.002051  -0.000035   0.000036   0.003081  -0.064278
    12  C   -0.000633   0.000002  -0.000000   0.000001   0.000096   0.007352
    13  C    0.000137   0.000000  -0.000001   0.000047   0.002310  -0.003418
    14  C    0.000002  -0.000000   0.000000  -0.000000   0.000003  -0.000024
    15  C    0.000002  -0.000000   0.000000  -0.000001   0.000079   0.000070
    16  H   -0.000023   0.000000   0.000001   0.000093   0.000147   0.000837
    17  C   -0.000000   0.000000   0.000000   0.000000  -0.000001  -0.000003
    18  H   -0.000000   0.000000   0.000000   0.000000  -0.000000   0.000003
    19  H   -0.000000   0.000000  -0.000000   0.000000   0.000001  -0.000003
    20  H    0.000000  -0.000000   0.000000  -0.000000  -0.000000  -0.000000
    21  C    0.005700  -0.047683  -0.004995   0.000133   0.000003  -0.000039
    22  C    0.005195  -0.064280   0.003081   0.000036  -0.000035   0.002051
    23  C   -0.000633   0.007352   0.000096   0.000001  -0.000000   0.000002
    24  C    0.000137  -0.003418   0.002309   0.000047  -0.000001   0.000000
    25  C    0.000002  -0.000024   0.000003  -0.000000   0.000000  -0.000000
    26  C    0.000002   0.000070   0.000079  -0.000001   0.000000  -0.000000
    27  H   -0.000023   0.000837   0.000147   0.000093   0.000001   0.000000
    28  C   -0.000000  -0.000003  -0.000001   0.000000   0.000000   0.000000
    29  H   -0.000000   0.000003  -0.000000   0.000000   0.000000   0.000000
    30  H   -0.000000  -0.000003   0.000001   0.000000  -0.000000   0.000000
    31  H    0.000000  -0.000000  -0.000000  -0.000000   0.000000  -0.000000
    32  N   -0.040503   0.251030  -0.077782   0.004828  -0.000007   0.005887
    33  N    0.001702   0.006095  -0.000157   0.000002   0.000000  -0.000035
    34  N   -0.040504   0.005887  -0.000007   0.004828  -0.077783   0.251027
    35  N    0.001702  -0.000035   0.000000   0.000002  -0.000157   0.006095
    36  C   -0.000011   0.000000   0.000000  -0.000000   0.000002  -0.000035
    37  H   -0.000001  -0.000000   0.000000   0.000000  -0.000000   0.000004
    38  H   -0.000001  -0.000000   0.000000   0.000000  -0.000000   0.000004
    39  H   -0.000012   0.000001   0.000000  -0.000000   0.000000  -0.000007
    40  C   -0.000011  -0.000035   0.000002  -0.000000   0.000000   0.000000
    41  H   -0.000001   0.000004  -0.000000   0.000000   0.000000  -0.000000
    42  H   -0.000001   0.000004  -0.000000   0.000000   0.000000  -0.000000
    43  H   -0.000012  -0.000007   0.000000  -0.000000   0.000000   0.000001
    44  Co   0.254559  -0.059058   0.007062   0.002541   0.007061  -0.059058
               7          8          9         10         11         12
     1  C    0.006830   0.001712   0.006830   0.005700   0.005195  -0.000633
     2  C   -0.041197   0.002933   0.000918  -0.000039   0.002051   0.000002
     3  C    0.338767  -0.036854   0.003879   0.000003  -0.000035  -0.000000
     4  C   -0.040110   0.364473  -0.040110   0.000133   0.000036   0.000001
     5  C    0.003879  -0.036854   0.338767  -0.004995   0.003081   0.000096
     6  C    0.000918   0.002933  -0.041196  -0.047680  -0.064278   0.007352
     7  H    0.577282  -0.004174  -0.000079  -0.000000  -0.000001   0.000000
     8  H   -0.004174   0.556371  -0.004174  -0.000003   0.000001  -0.000000
     9  H   -0.000079  -0.004174   0.577279   0.000441  -0.000200  -0.000046
    10  C   -0.000000  -0.000003   0.000441   4.642638  -0.066058   0.513350
    11  C   -0.000001   0.000001  -0.000200  -0.066058   4.804896  -0.055030
    12  C    0.000000  -0.000000  -0.000046   0.513350  -0.055030   4.660384
    13  C   -0.000000   0.000002  -0.000468   0.541177   0.004436  -0.056713
    14  C   -0.000000   0.000000  -0.000000  -0.049195   0.004907   0.534576
    15  C   -0.000000   0.000000   0.000122  -0.005708  -0.000052  -0.037958
    16  H    0.000000  -0.000010   0.006531  -0.033041  -0.000156   0.003713
    17  C    0.000000  -0.000000   0.000002  -0.039514  -0.000056  -0.009227
    18  H    0.000000  -0.000000  -0.000000   0.004059  -0.000212  -0.037823
    19  H    0.000000   0.000000  -0.000008   0.001885   0.000003   0.000942
    20  H   -0.000000  -0.000000   0.000000   0.000908   0.000003   0.002395
    21  C    0.000441  -0.000003  -0.000000  -0.000000  -0.000007   0.000000
    22  C   -0.000200   0.000001  -0.000001  -0.000007  -0.012904  -0.000002
    23  C   -0.000046  -0.000000   0.000000   0.000000  -0.000002  -0.000000
    24  C   -0.000469   0.000002  -0.000000   0.000000   0.000000   0.000000
    25  C   -0.000000   0.000000  -0.000000  -0.000000   0.000000   0.000000
    26  C    0.000122   0.000000  -0.000000  -0.000000  -0.000000   0.000000
    27  H    0.006531  -0.000010   0.000000   0.000000   0.000000  -0.000000
    28  C    0.000002  -0.000000   0.000000   0.000000  -0.000000  -0.000000
    29  H   -0.000000  -0.000000   0.000000   0.000000   0.000000  -0.000000
    30  H   -0.000008   0.000000   0.000000   0.000000   0.000000  -0.000000
    31  H    0.000000  -0.000000  -0.000000   0.000000   0.000000   0.000000
    32  N   -0.003426  -0.000105   0.000009   0.000000   0.000268   0.000000
    33  N   -0.000000  -0.000000  -0.000000   0.000000   0.000027   0.000000
    34  N    0.000009  -0.000105  -0.003426   0.256267   0.349054  -0.040437
    35  N   -0.000000  -0.000000  -0.000000  -0.047202   0.303133   0.262499
    36  C   -0.000000   0.000000  -0.000000   0.005506  -0.044405  -0.048677
    37  H    0.000000  -0.000000   0.000000  -0.000138   0.000562  -0.001026
    38  H    0.000000  -0.000000   0.000000  -0.000138   0.000558  -0.001022
    39  H    0.000000   0.000000   0.000000   0.000018   0.000514   0.002573
    40  C   -0.000000   0.000000  -0.000000   0.000000   0.000013   0.000000
    41  H    0.000000  -0.000000   0.000000  -0.000000  -0.000000  -0.000000
    42  H    0.000000  -0.000000   0.000000  -0.000000  -0.000000  -0.000000
    43  H    0.000000   0.000000   0.000000  -0.000000  -0.000002  -0.000000
    44  Co  -0.000680   0.000120  -0.000680   0.007403   0.363675   0.005605
              13         14         15         16         17         18
     1  C    0.000137   0.000002   0.000002  -0.000023  -0.000000  -0.000000
     2  C    0.000000  -0.000000  -0.000000   0.000000   0.000000   0.000000
     3  C   -0.000001   0.000000   0.000000   0.000001   0.000000   0.000000
     4  C    0.000047  -0.000000  -0.000001   0.000093   0.000000   0.000000
     5  C    0.002310   0.000003   0.000079   0.000147  -0.000001  -0.000000
     6  C   -0.003418  -0.000024   0.000070   0.000837  -0.000003   0.000003
     7  H   -0.000000  -0.000000  -0.000000   0.000000   0.000000   0.000000
     8  H    0.000002   0.000000   0.000000  -0.000010  -0.000000  -0.000000
     9  H   -0.000468  -0.000000   0.000122   0.006531   0.000002  -0.000000
    10  C    0.541177  -0.049195  -0.005708  -0.033041  -0.039514   0.004059
    11  C    0.004436   0.004907  -0.000052  -0.000156  -0.000056  -0.000212
    12  C   -0.056713   0.534576  -0.037958   0.003713  -0.009227  -0.037823
    13  C    5.022172  -0.044667   0.508326   0.355261  -0.037184   0.000284
    14  C   -0.044667   5.030048  -0.036143   0.000429   0.516948   0.362226
    15  C    0.508326  -0.036143   4.896631  -0.035109   0.557117   0.003770
    16  H    0.355261   0.000429  -0.035109   0.508673   0.003624   0.000013
    17  C   -0.037184   0.516948   0.557117   0.003624   4.888760  -0.034829
    18  H    0.000284   0.362226   0.003770   0.000013  -0.034829   0.532447
    19  H   -0.035531   0.003853   0.369051  -0.003806  -0.035649  -0.000139
    20  H    0.004085  -0.037166  -0.036750  -0.000147   0.368750  -0.004197
    21  C    0.000000  -0.000000  -0.000000   0.000000   0.000000   0.000000
    22  C    0.000000   0.000000  -0.000000   0.000000  -0.000000   0.000000
    23  C    0.000000   0.000000   0.000000  -0.000000  -0.000000  -0.000000
    24  C    0.000000  -0.000000   0.000000   0.000000   0.000000   0.000000
    25  C   -0.000000  -0.000000   0.000000  -0.000000  -0.000000   0.000000
    26  C    0.000000   0.000000  -0.000000  -0.000000  -0.000000   0.000000
    27  H    0.000000  -0.000000  -0.000000   0.000000   0.000000  -0.000000
    28  C    0.000000  -0.000000  -0.000000   0.000000   0.000000   0.000000
    29  H    0.000000   0.000000   0.000000  -0.000000   0.000000  -0.000000
    30  H   -0.000000  -0.000000   0.000000  -0.000000   0.000000   0.000000
    31  H   -0.000000   0.000000   0.000000  -0.000000   0.000000   0.000000
    32  N   -0.000000  -0.000000   0.000000   0.000000   0.000000  -0.000000
    33  N    0.000000  -0.000000  -0.000000   0.000000   0.000000  -0.000000
    34  N   -0.077482   0.009515   0.005207  -0.005195  -0.000162  -0.000101
    35  N    0.009532  -0.083226  -0.000191  -0.000094   0.005454  -0.007494
    36  C   -0.000113  -0.002799   0.000009   0.000003  -0.000110   0.004368
    37  H   -0.000009   0.002571  -0.000001  -0.000000  -0.000005   0.000520
    38  H   -0.000009   0.002568  -0.000001  -0.000000  -0.000005   0.000519
    39  H    0.000005   0.000008  -0.000000  -0.000000   0.000002  -0.000033
    40  C    0.000000   0.000000  -0.000000   0.000000   0.000000  -0.000000
    41  H   -0.000000  -0.000000   0.000000  -0.000000   0.000000  -0.000000
    42  H   -0.000000  -0.000000   0.000000  -0.000000   0.000000  -0.000000
    43  H   -0.000000   0.000000  -0.000000   0.000000  -0.000000   0.000000
    44  Co  -0.001285  -0.001425   0.000169   0.000046   0.000153   0.000027
              19         20         21         22         23         24
     1  C   -0.000000   0.000000   0.005700   0.005195  -0.000633   0.000137
     2  C    0.000000  -0.000000  -0.047683  -0.064280   0.007352  -0.003418
     3  C   -0.000000   0.000000  -0.004995   0.003081   0.000096   0.002309
     4  C    0.000000  -0.000000   0.000133   0.000036   0.000001   0.000047
     5  C    0.000001  -0.000000   0.000003  -0.000035  -0.000000  -0.000001
     6  C   -0.000003  -0.000000  -0.000039   0.002051   0.000002   0.000000
     7  H    0.000000  -0.000000   0.000441  -0.000200  -0.000046  -0.000469
     8  H    0.000000  -0.000000  -0.000003   0.000001  -0.000000   0.000002
     9  H   -0.000008   0.000000  -0.000000  -0.000001   0.000000  -0.000000
    10  C    0.001885   0.000908  -0.000000  -0.000007   0.000000   0.000000
    11  C    0.000003   0.000003  -0.000007  -0.012904  -0.000002   0.000000
    12  C    0.000942   0.002395   0.000000  -0.000002  -0.000000   0.000000
    13  C   -0.035531   0.004085   0.000000   0.000000   0.000000   0.000000
    14  C    0.003853  -0.037166  -0.000000   0.000000   0.000000  -0.000000
    15  C    0.369051  -0.036750  -0.000000  -0.000000   0.000000   0.000000
    16  H   -0.003806  -0.000147   0.000000   0.000000  -0.000000   0.000000
    17  C   -0.035649   0.368750   0.000000  -0.000000  -0.000000   0.000000
    18  H   -0.000139  -0.004197   0.000000   0.000000  -0.000000   0.000000
    19  H    0.529740  -0.004635   0.000000   0.000000  -0.000000  -0.000000
    20  H   -0.004635   0.536421   0.000000   0.000000   0.000000  -0.000000
    21  C    0.000000   0.000000   4.642673  -0.066059   0.513348   0.541173
    22  C    0.000000   0.000000  -0.066059   4.804904  -0.055028   0.004435
    23  C   -0.000000   0.000000   0.513348  -0.055028   4.660354  -0.056709
    24  C   -0.000000  -0.000000   0.541173   0.004435  -0.056709   5.022150
    25  C   -0.000000   0.000000  -0.049197   0.004907   0.534582  -0.044666
    26  C    0.000000   0.000000  -0.005711  -0.000052  -0.037958   0.508332
    27  H   -0.000000  -0.000000  -0.033043  -0.000156   0.003713   0.355263
    28  C    0.000000   0.000000  -0.039514  -0.000056  -0.009225  -0.037184
    29  H    0.000000   0.000000   0.004059  -0.000212  -0.037822   0.000284
    30  H    0.000000   0.000000   0.001885   0.000003   0.000942  -0.035532
    31  H    0.000000   0.000000   0.000908   0.000003   0.002395   0.004085
    32  N    0.000000   0.000000   0.256271   0.349047  -0.040438  -0.077478
    33  N   -0.000000  -0.000000  -0.047201   0.303133   0.262496   0.009531
    34  N   -0.000095   0.000003   0.000000   0.000268   0.000000  -0.000000
    35  N    0.000004  -0.000104   0.000000   0.000027   0.000000   0.000000
    36  C   -0.000000  -0.000002   0.000000   0.000013   0.000000   0.000000
    37  H   -0.000000  -0.000000  -0.000000  -0.000000  -0.000000  -0.000000
    38  H   -0.000000  -0.000000  -0.000000  -0.000000  -0.000000  -0.000000
    39  H   -0.000000  -0.000000  -0.000000  -0.000002  -0.000000  -0.000000
    40  C    0.000000  -0.000000   0.005506  -0.044405  -0.048676  -0.000113
    41  H   -0.000000   0.000000  -0.000138   0.000557  -0.001022  -0.000009
    42  H   -0.000000   0.000000  -0.000138   0.000563  -0.001026  -0.000009
    43  H   -0.000000   0.000000   0.000018   0.000514   0.002573   0.000005
    44  Co   0.000014  -0.000011   0.007402   0.363676   0.005605  -0.001285
              25         26         27         28         29         30
     1  C    0.000002   0.000002  -0.000023  -0.000000  -0.000000  -0.000000
     2  C   -0.000024   0.000070   0.000837  -0.000003   0.000003  -0.000003
     3  C    0.000003   0.000079   0.000147  -0.000001  -0.000000   0.000001
     4  C   -0.000000  -0.000001   0.000093   0.000000   0.000000   0.000000
     5  C    0.000000   0.000000   0.000001   0.000000   0.000000  -0.000000
     6  C   -0.000000  -0.000000   0.000000   0.000000   0.000000   0.000000
     7  H   -0.000000   0.000122   0.006531   0.000002  -0.000000  -0.000008
     8  H    0.000000   0.000000  -0.000010  -0.000000  -0.000000   0.000000
     9  H   -0.000000  -0.000000   0.000000   0.000000   0.000000   0.000000
    10  C   -0.000000  -0.000000   0.000000   0.000000   0.000000   0.000000
    11  C    0.000000  -0.000000   0.000000  -0.000000   0.000000   0.000000
    12  C    0.000000   0.000000  -0.000000  -0.000000  -0.000000  -0.000000
    13  C   -0.000000   0.000000   0.000000   0.000000   0.000000  -0.000000
    14  C   -0.000000   0.000000  -0.000000  -0.000000   0.000000  -0.000000
    15  C    0.000000  -0.000000  -0.000000  -0.000000   0.000000   0.000000
    16  H   -0.000000  -0.000000   0.000000   0.000000  -0.000000  -0.000000
    17  C   -0.000000  -0.000000   0.000000   0.000000   0.000000   0.000000
    18  H    0.000000   0.000000  -0.000000   0.000000  -0.000000   0.000000
    19  H   -0.000000   0.000000  -0.000000   0.000000   0.000000   0.000000
    20  H    0.000000   0.000000  -0.000000   0.000000   0.000000   0.000000
    21  C   -0.049197  -0.005711  -0.033043  -0.039514   0.004059   0.001885
    22  C    0.004907  -0.000052  -0.000156  -0.000056  -0.000212   0.000003
    23  C    0.534582  -0.037958   0.003713  -0.009225  -0.037822   0.000942
    24  C   -0.044666   0.508332   0.355263  -0.037184   0.000284  -0.035532
    25  C    5.030068  -0.036143   0.000428   0.516939   0.362226   0.003853
    26  C   -0.036143   4.896623  -0.035109   0.557119   0.003770   0.369050
    27  H    0.000428  -0.035109   0.508673   0.003624   0.000013  -0.003806
    28  C    0.516939   0.557119   0.003624   4.888765  -0.034829  -0.035649
    29  H    0.362226   0.003770   0.000013  -0.034829   0.532446  -0.000139
    30  H    0.003853   0.369050  -0.003806  -0.035649  -0.000139   0.529744
    31  H   -0.037165  -0.036749  -0.000147   0.368751  -0.004197  -0.004636
    32  N    0.009515   0.005207  -0.005195  -0.000162  -0.000101  -0.000095
    33  N   -0.083229  -0.000191  -0.000094   0.005454  -0.007494   0.000004
    34  N   -0.000000   0.000000   0.000000   0.000000  -0.000000   0.000000
    35  N   -0.000000  -0.000000   0.000000   0.000000  -0.000000  -0.000000
    36  C    0.000000  -0.000000   0.000000   0.000000  -0.000000   0.000000
    37  H   -0.000000   0.000000  -0.000000   0.000000  -0.000000  -0.000000
    38  H   -0.000000   0.000000  -0.000000   0.000000  -0.000000  -0.000000
    39  H    0.000000  -0.000000   0.000000  -0.000000   0.000000  -0.000000
    40  C   -0.002799   0.000009   0.000003  -0.000110   0.004368  -0.000000
    41  H    0.002568  -0.000001  -0.000000  -0.000005   0.000519  -0.000000
    42  H    0.002571  -0.000001  -0.000000  -0.000005   0.000520  -0.000000
    43  H    0.000008  -0.000000  -0.000000   0.000002  -0.000033  -0.000000
    44  Co  -0.001425   0.000169   0.000046   0.000153   0.000027   0.000014
              31         32         33         34         35         36
     1  C    0.000000  -0.040503   0.001702  -0.040504   0.001702  -0.000011
     2  C   -0.000000   0.251030   0.006095   0.005887  -0.000035   0.000000
     3  C   -0.000000  -0.077782  -0.000157  -0.000007   0.000000   0.000000
     4  C   -0.000000   0.004828   0.000002   0.004828   0.000002  -0.000000
     5  C    0.000000  -0.000007   0.000000  -0.077783  -0.000157   0.000002
     6  C   -0.000000   0.005887  -0.000035   0.251027   0.006095  -0.000035
     7  H    0.000000  -0.003426  -0.000000   0.000009  -0.000000  -0.000000
     8  H   -0.000000  -0.000105  -0.000000  -0.000105  -0.000000   0.000000
     9  H   -0.000000   0.000009  -0.000000  -0.003426  -0.000000  -0.000000
    10  C    0.000000   0.000000   0.000000   0.256267  -0.047202   0.005506
    11  C    0.000000   0.000268   0.000027   0.349054   0.303133  -0.044405
    12  C    0.000000   0.000000   0.000000  -0.040437   0.262499  -0.048677
    13  C   -0.000000  -0.000000   0.000000  -0.077482   0.009532  -0.000113
    14  C    0.000000  -0.000000  -0.000000   0.009515  -0.083226  -0.002799
    15  C    0.000000   0.000000  -0.000000   0.005207  -0.000191   0.000009
    16  H   -0.000000   0.000000   0.000000  -0.005195  -0.000094   0.000003
    17  C    0.000000   0.000000   0.000000  -0.000162   0.005454  -0.000110
    18  H    0.000000  -0.000000  -0.000000  -0.000101  -0.007494   0.004368
    19  H    0.000000   0.000000  -0.000000  -0.000095   0.000004  -0.000000
    20  H    0.000000   0.000000  -0.000000   0.000003  -0.000104  -0.000002
    21  C    0.000908   0.256271  -0.047201   0.000000   0.000000   0.000000
    22  C    0.000003   0.349047   0.303133   0.000268   0.000027   0.000013
    23  C    0.002395  -0.040438   0.262496   0.000000   0.000000   0.000000
    24  C    0.004085  -0.077478   0.009531  -0.000000   0.000000   0.000000
    25  C   -0.037165   0.009515  -0.083229  -0.000000  -0.000000   0.000000
    26  C   -0.036749   0.005207  -0.000191   0.000000  -0.000000  -0.000000
    27  H   -0.000147  -0.005195  -0.000094   0.000000   0.000000   0.000000
    28  C    0.368751  -0.000162   0.005454   0.000000   0.000000   0.000000
    29  H   -0.004197  -0.000101  -0.007494  -0.000000  -0.000000  -0.000000
    30  H   -0.004636  -0.000095   0.000004   0.000000  -0.000000   0.000000
    31  H    0.536418   0.000003  -0.000104   0.000000  -0.000000  -0.000000
    32  N    0.000003   7.211431  -0.059746  -0.000043   0.000000   0.000000
    33  N   -0.000104  -0.059746   7.061103   0.000000  -0.000000  -0.000000
    34  N    0.000000  -0.000043   0.000000   7.211452  -0.059747   0.004511
    35  N   -0.000000   0.000000  -0.000000  -0.059747   7.061090   0.300438
    36  C   -0.000000   0.000000  -0.000000   0.004511   0.300438   5.060958
    37  H    0.000000   0.000000   0.000000  -0.000066  -0.041945   0.377299
    38  H    0.000000   0.000000   0.000000  -0.000066  -0.041949   0.377305
    39  H    0.000000  -0.000000   0.000001   0.000155  -0.031550   0.376225
    40  C   -0.000002   0.004511   0.300438   0.000000  -0.000000   0.000000
    41  H   -0.000000  -0.000066  -0.041948   0.000000   0.000000  -0.000000
    42  H   -0.000000  -0.000066  -0.041945   0.000000   0.000000  -0.000000
    43  H   -0.000000   0.000155  -0.031551  -0.000000   0.000001  -0.000001
    44  Co  -0.000011  -0.072894  -0.054930  -0.072896  -0.054930  -0.007020
              37         38         39         40         41         42
     1  C   -0.000001  -0.000001  -0.000012  -0.000011  -0.000001  -0.000001
     2  C   -0.000000  -0.000000   0.000001  -0.000035   0.000004   0.000004
     3  C    0.000000   0.000000   0.000000   0.000002  -0.000000  -0.000000
     4  C    0.000000   0.000000  -0.000000  -0.000000   0.000000   0.000000
     5  C   -0.000000  -0.000000   0.000000   0.000000   0.000000   0.000000
     6  C    0.000004   0.000004  -0.000007   0.000000  -0.000000  -0.000000
     7  H    0.000000   0.000000   0.000000  -0.000000   0.000000   0.000000
     8  H   -0.000000  -0.000000   0.000000   0.000000  -0.000000  -0.000000
     9  H    0.000000   0.000000   0.000000  -0.000000   0.000000   0.000000
    10  C   -0.000138  -0.000138   0.000018   0.000000  -0.000000  -0.000000
    11  C    0.000562   0.000558   0.000514   0.000013  -0.000000  -0.000000
    12  C   -0.001026  -0.001022   0.002573   0.000000  -0.000000  -0.000000
    13  C   -0.000009  -0.000009   0.000005   0.000000  -0.000000  -0.000000
    14  C    0.002571   0.002568   0.000008   0.000000  -0.000000  -0.000000
    15  C   -0.000001  -0.000001  -0.000000  -0.000000   0.000000   0.000000
    16  H   -0.000000  -0.000000  -0.000000   0.000000  -0.000000  -0.000000
    17  C   -0.000005  -0.000005   0.000002   0.000000   0.000000   0.000000
    18  H    0.000520   0.000519  -0.000033  -0.000000  -0.000000  -0.000000
    19  H   -0.000000  -0.000000  -0.000000   0.000000  -0.000000  -0.000000
    20  H   -0.000000  -0.000000  -0.000000  -0.000000   0.000000   0.000000
    21  C   -0.000000  -0.000000  -0.000000   0.005506  -0.000138  -0.000138
    22  C   -0.000000  -0.000000  -0.000002  -0.044405   0.000557   0.000563
    23  C   -0.000000  -0.000000  -0.000000  -0.048676  -0.001022  -0.001026
    24  C   -0.000000  -0.000000  -0.000000  -0.000113  -0.000009  -0.000009
    25  C   -0.000000  -0.000000   0.000000  -0.002799   0.002568   0.002571
    26  C    0.000000   0.000000  -0.000000   0.000009  -0.000001  -0.000001
    27  H   -0.000000  -0.000000   0.000000   0.000003  -0.000000  -0.000000
    28  C    0.000000   0.000000  -0.000000  -0.000110  -0.000005  -0.000005
    29  H   -0.000000  -0.000000   0.000000   0.004368   0.000519   0.000520
    30  H   -0.000000  -0.000000  -0.000000  -0.000000  -0.000000  -0.000000
    31  H    0.000000   0.000000   0.000000  -0.000002  -0.000000  -0.000000
    32  N    0.000000   0.000000  -0.000000   0.004511  -0.000066  -0.000066
    33  N    0.000000   0.000000   0.000001   0.300438  -0.041948  -0.041945
    34  N   -0.000066  -0.000066   0.000155   0.000000   0.000000   0.000000
    35  N   -0.041945  -0.041949  -0.031550  -0.000000   0.000000   0.000000
    36  C    0.377299   0.377305   0.376225   0.000000  -0.000000  -0.000000
    37  H    0.523931  -0.039466  -0.025284  -0.000000   0.000000  -0.000000
    38  H   -0.039466   0.523926  -0.025290  -0.000000  -0.000000   0.000000
    39  H   -0.025284  -0.025290   0.467701  -0.000001   0.000000   0.000000
    40  C   -0.000000  -0.000000  -0.000001   5.060957   0.377306   0.377299
    41  H    0.000000  -0.000000   0.000000   0.377306   0.523926  -0.039466
    42  H   -0.000000   0.000000   0.000000   0.377299  -0.039466   0.523931
    43  H    0.000000   0.000000  -0.000024   0.376225  -0.025290  -0.025284
    44  Co   0.000623   0.000625   0.008338  -0.007019   0.000625   0.000622
              43         44
     1  C   -0.000012   0.254559
     2  C   -0.000007  -0.059058
     3  C    0.000000   0.007062
     4  C   -0.000000   0.002541
     5  C    0.000000   0.007061
     6  C    0.000001  -0.059058
     7  H    0.000000  -0.000680
     8  H    0.000000   0.000120
     9  H    0.000000  -0.000680
    10  C   -0.000000   0.007403
    11  C   -0.000002   0.363675
    12  C   -0.000000   0.005605
    13  C   -0.000000  -0.001285
    14  C    0.000000  -0.001425
    15  C   -0.000000   0.000169
    16  H    0.000000   0.000046
    17  C   -0.000000   0.000153
    18  H    0.000000   0.000027
    19  H   -0.000000   0.000014
    20  H    0.000000  -0.000011
    21  C    0.000018   0.007402
    22  C    0.000514   0.363676
    23  C    0.002573   0.005605
    24  C    0.000005  -0.001285
    25  C    0.000008  -0.001425
    26  C   -0.000000   0.000169
    27  H   -0.000000   0.000046
    28  C    0.000002   0.000153
    29  H   -0.000033   0.000027
    30  H   -0.000000   0.000014
    31  H   -0.000000  -0.000011
    32  N    0.000155  -0.072894
    33  N   -0.031551  -0.054930
    34  N   -0.000000  -0.072896
    35  N    0.000001  -0.054930
    36  C   -0.000001  -0.007020
    37  H    0.000000   0.000623
    38  H    0.000000   0.000625
    39  H   -0.000024   0.008338
    40  C    0.376225  -0.007019
    41  H   -0.025290   0.000625
    42  H   -0.025284   0.000622
    43  H    0.467702   0.008338
    44  Co   0.008338  16.489442
          Atomic-Atomic Spin Densities.
               1          2          3          4          5          6
     1  C    0.000005  -0.000000  -0.000000  -0.000000  -0.000000  -0.000000
     2  C   -0.000000  -0.000000   0.000000   0.000000   0.000000  -0.000000
     3  C   -0.000000   0.000000   0.000000  -0.000000  -0.000000   0.000000
     4  C   -0.000000   0.000000  -0.000000   0.000000  -0.000000   0.000000
     5  C   -0.000000   0.000000  -0.000000  -0.000000   0.000000   0.000000
     6  C   -0.000000  -0.000000   0.000000   0.000000   0.000000  -0.000000
     7  H    0.000000  -0.000000  -0.000000  -0.000000   0.000000  -0.000000
     8  H    0.000000  -0.000000   0.000000   0.000000   0.000000  -0.000000
     9  H    0.000000  -0.000000   0.000000  -0.000000  -0.000000  -0.000000
    10  C    0.000000  -0.000000  -0.000000   0.000000   0.000000   0.000000
    11  C   -0.000000   0.000000  -0.000000   0.000000  -0.000000  -0.000000
    12  C   -0.000000  -0.000000   0.000000   0.000000   0.000000   0.000000
    13  C    0.000000   0.000000  -0.000000   0.000000   0.000000   0.000000
    14  C    0.000000   0.000000  -0.000000   0.000000   0.000000   0.000000
    15  C    0.000000   0.000000  -0.000000   0.000000  -0.000000  -0.000000
    16  H    0.000000  -0.000000   0.000000  -0.000000   0.000000  -0.000000
    17  C   -0.000000  -0.000000   0.000000   0.000000   0.000000  -0.000000
    18  H   -0.000000   0.000000   0.000000  -0.000000  -0.000000  -0.000000
    19  H   -0.000000  -0.000000   0.000000  -0.000000   0.000000   0.000000
    20  H    0.000000  -0.000000  -0.000000   0.000000   0.000000   0.000000
    21  C    0.000000   0.000000   0.000000   0.000000  -0.000000  -0.000000
    22  C   -0.000000  -0.000000  -0.000000   0.000000  -0.000000   0.000000
    23  C   -0.000000   0.000000   0.000000   0.000000   0.000000  -0.000000
    24  C    0.000000   0.000000   0.000000   0.000000  -0.000000   0.000000
    25  C    0.000000   0.000000   0.000000   0.000000  -0.000000   0.000000
    26  C    0.000000  -0.000000  -0.000000   0.000000  -0.000000   0.000000
    27  H    0.000000  -0.000000   0.000000  -0.000000   0.000000  -0.000000
    28  C   -0.000000  -0.000000   0.000000   0.000000   0.000000  -0.000000
    29  H   -0.000000  -0.000000  -0.000000  -0.000000   0.000000   0.000000
    30  H   -0.000000   0.000000   0.000000  -0.000000   0.000000  -0.000000
    31  H    0.000000   0.000000   0.000000   0.000000  -0.000000  -0.000000
    32  N    0.000000   0.000000  -0.000000  -0.000000   0.000000  -0.000000
    33  N    0.000000   0.000000   0.000000   0.000000  -0.000000  -0.000000
    34  N    0.000000  -0.000000   0.000000  -0.000000  -0.000000   0.000000
    35  N    0.000000  -0.000000  -0.000000   0.000000   0.000000   0.000000
    36  C    0.000000  -0.000000  -0.000000   0.000000  -0.000000  -0.000000
    37  H   -0.000000   0.000000  -0.000000  -0.000000  -0.000000  -0.000000
    38  H   -0.000000   0.000000   0.000000  -0.000000  -0.000000   0.000000
    39  H   -0.000000  -0.000000   0.000000  -0.000000  -0.000000   0.000000
    40  C    0.000000  -0.000000  -0.000000   0.000000  -0.000000  -0.000000
    41  H   -0.000000   0.000000  -0.000000  -0.000000   0.000000   0.000000
    42  H   -0.000000  -0.000000  -0.000000  -0.000000  -0.000000   0.000000
    43  H   -0.000000   0.000000  -0.000000  -0.000000   0.000000  -0.000000
    44  Co  -0.000001   0.000000  -0.000000  -0.000000  -0.000000   0.000000
               7          8          9         10         11         12
     1  C    0.000000   0.000000   0.000000   0.000000  -0.000000  -0.000000
     2  C   -0.000000  -0.000000  -0.000000  -0.000000   0.000000  -0.000000
     3  C   -0.000000   0.000000   0.000000  -0.000000  -0.000000   0.000000
     4  C   -0.000000   0.000000  -0.000000   0.000000   0.000000   0.000000
     5  C    0.000000   0.000000  -0.000000   0.000000  -0.000000   0.000000
     6  C   -0.000000  -0.000000  -0.000000   0.000000  -0.000000   0.000000
     7  H    0.000000  -0.000000   0.000000  -0.000000   0.000000  -0.000000
     8  H   -0.000000  -0.000000  -0.000000  -0.000000   0.000000  -0.000000
     9  H    0.000000  -0.000000   0.000000  -0.000000   0.000000  -0.000000
    10  C   -0.000000  -0.000000  -0.000000  -0.000000   0.000000  -0.000000
    11  C    0.000000   0.000000   0.000000   0.000000   0.000001   0.000000
    12  C   -0.000000  -0.000000  -0.000000  -0.000000   0.000000  -0.000000
    13  C   -0.000000   0.000000  -0.000000   0.000000   0.000000  -0.000000
    14  C   -0.000000  -0.000000  -0.000000  -0.000000  -0.000000  -0.000000
    15  C   -0.000000   0.000000  -0.000000  -0.000000  -0.000000   0.000000
    16  H   -0.000000  -0.000000   0.000000  -0.000000   0.000000  -0.000000
    17  C   -0.000000  -0.000000  -0.000000   0.000000   0.000000  -0.000000
    18  H    0.000000   0.000000   0.000000   0.000000   0.000000   0.000000
    19  H   -0.000000  -0.000000  -0.000000   0.000000   0.000000  -0.000000
    20  H   -0.000000  -0.000000  -0.000000  -0.000000  -0.000000   0.000000
    21  C   -0.000000  -0.000000  -0.000000   0.000000   0.000000  -0.000000
    22  C    0.000000   0.000000   0.000000   0.000000   0.000000   0.000000
    23  C   -0.000000  -0.000000  -0.000000  -0.000000   0.000000   0.000000
    24  C   -0.000000   0.000000  -0.000000   0.000000  -0.000000  -0.000000
    25  C   -0.000000  -0.000000  -0.000000   0.000000  -0.000000  -0.000000
    26  C   -0.000000   0.000000  -0.000000   0.000000   0.000000  -0.000000
    27  H    0.000000  -0.000000  -0.000000  -0.000000   0.000000  -0.000000
    28  C   -0.000000  -0.000000  -0.000000  -0.000000   0.000000  -0.000000
    29  H    0.000000   0.000000   0.000000  -0.000000   0.000000   0.000000
    30  H   -0.000000  -0.000000  -0.000000  -0.000000  -0.000000   0.000000
    31  H   -0.000000  -0.000000  -0.000000   0.000000  -0.000000  -0.000000
    32  N    0.000000  -0.000000   0.000000  -0.000000   0.000000   0.000000
    33  N   -0.000000  -0.000000  -0.000000   0.000000  -0.000000  -0.000000
    34  N    0.000000  -0.000000   0.000000  -0.000000  -0.000000   0.000000
    35  N   -0.000000  -0.000000  -0.000000   0.000000  -0.000000  -0.000000
    36  C   -0.000000   0.000000   0.000000   0.000000  -0.000000   0.000000
    37  H    0.000000   0.000000   0.000000   0.000000   0.000000   0.000000
    38  H    0.000000  -0.000000   0.000000   0.000000   0.000000   0.000000
    39  H    0.000000   0.000000   0.000000   0.000000   0.000000   0.000000
    40  C    0.000000   0.000000  -0.000000   0.000000  -0.000000  -0.000000
    41  H    0.000000  -0.000000   0.000000  -0.000000  -0.000000   0.000000
    42  H    0.000000   0.000000   0.000000  -0.000000   0.000000   0.000000
    43  H    0.000000   0.000000   0.000000  -0.000000   0.000000   0.000000
    44  Co   0.000000   0.000000   0.000000   0.000000   0.000001   0.000000
              13         14         15         16         17         18
     1  C    0.000000   0.000000   0.000000   0.000000  -0.000000  -0.000000
     2  C    0.000000   0.000000   0.000000  -0.000000  -0.000000   0.000000
     3  C   -0.000000  -0.000000  -0.000000   0.000000   0.000000   0.000000
     4  C    0.000000   0.000000   0.000000  -0.000000   0.000000  -0.000000
     5  C    0.000000   0.000000  -0.000000   0.000000   0.000000  -0.000000
     6  C    0.000000   0.000000  -0.000000  -0.000000  -0.000000  -0.000000
     7  H   -0.000000  -0.000000  -0.000000  -0.000000  -0.000000   0.000000
     8  H    0.000000  -0.000000   0.000000  -0.000000  -0.000000   0.000000
     9  H   -0.000000  -0.000000  -0.000000   0.000000  -0.000000   0.000000
    10  C    0.000000  -0.000000  -0.000000  -0.000000   0.000000   0.000000
    11  C    0.000000  -0.000000  -0.000000   0.000000   0.000000   0.000000
    12  C   -0.000000  -0.000000   0.000000  -0.000000  -0.000000   0.000000
    13  C    0.000000   0.000000  -0.000000  -0.000000  -0.000000  -0.000000
    14  C    0.000000   0.000000  -0.000000  -0.000000  -0.000000  -0.000000
[...]
              Bcc     0.0000     0.000     0.000     0.000  0.9136 -0.4022  0.0599
 
              Baa    -0.0000    -0.000    -0.000    -0.000  0.5722  0.6271  0.5286
    41 H(1)   Bbb     0.0000     0.000     0.000     0.000 -0.4844  0.7785 -0.3991
              Bcc     0.0000     0.000     0.000     0.000 -0.6617 -0.0277  0.7492
 
              Baa    -0.0000    -0.000    -0.000    -0.000  0.7295  0.5146 -0.4506
    42 H(1)   Bbb     0.0000     0.000     0.000     0.000 -0.6277  0.7654 -0.1422
              Bcc     0.0000     0.000     0.000     0.000  0.2717  0.3866  0.8813
 
              Baa    -0.0000    -0.000    -0.000    -0.000  0.4763  0.8617 -0.1750
    43 H(1)   Bbb     0.0000     0.000     0.000     0.000 -0.0206  0.2099  0.9775
              Bcc     0.0000     0.000     0.000     0.000  0.8790 -0.4620  0.1178
 
              Baa    -0.0001    -0.011    -0.004    -0.004 -0.0000  0.9210  0.3895
    44 Co(59) Bbb    -0.0000    -0.006    -0.002    -0.002 -0.0000 -0.3895  0.9210
              Bcc     0.0001     0.017     0.006     0.006  1.0000  0.0000  0.0000
 

 ---------------------------------------------------------------------------------

   1 Symmetry operations used in ECPInt.
 ECPInt:  NShTT=   11781 NPrTT=   71406 LenC2=    9522 LenP2D=   32051.
 LDataN:  DoStor=T MaxTD1= 7 Len=  274
 Calling FoFJK, ICntrl=      2127 FMM=F ISym2X=0 I1Cent= 0 IOpClX= 1 NMat=1 NMatS=1 NMatT=0.
 -------------------------------------------------------------------
 Center     Atomic                   Forces (Hartrees/Bohr)
 Number     Number              X              Y              Z
 -------------------------------------------------------------------
      1        6          -0.000010833   -0.103991709   -0.000011298
      2        6           0.087088559    0.053156140    0.000012315
      3        6          -0.006005883    0.003879167   -0.000003872
      4        6           0.000006281    0.009039596   -0.000000970
      5        6           0.005996361    0.003888858   -0.000003936
      6        6          -0.087064913    0.053142716    0.000010822
      7        1          -0.001335887    0.008228969   -0.000000710
      8        1           0.000000019    0.002404006    0.000000779
      9        1           0.001336834    0.008228439   -0.000000708
     10        6          -0.014329136   -0.007722744    0.000001565
     11        6           0.000857189    0.005849977   -0.000004957
     12        6           0.017109992    0.008090039   -0.000001143
     13        6           0.015492585    0.004901672   -0.000002003
     14        6           0.003015464    0.007478538   -0.000001171
     15        6          -0.015275075    0.008316792    0.000001521
     16        1           0.000693552   -0.000087724   -0.000000321
     17        6           0.001487254   -0.014706202    0.000000501
     18        1           0.002317090   -0.000449366    0.000000325
     19        1           0.001356657    0.000027114   -0.000000282
     20        1           0.002085458    0.000012120   -0.000000179
     21        6           0.014301637   -0.007691128    0.000000275
     22        6          -0.000860241    0.005851928   -0.000009030
     23        6          -0.017078470    0.008090879   -0.000001451
     24        6          -0.015471197    0.004868363   -0.000001348
     25        6          -0.003046001    0.007482496   -0.000001203
     26        6           0.015267622    0.008327190    0.000000547
     27        1          -0.000692276   -0.000079766   -0.000000160
     28        6          -0.001475077   -0.014719069    0.000000782
     29        1          -0.002314901   -0.000447357    0.000000063
     30        1          -0.001354390    0.000023461   -0.000000202
     31        1          -0.002088776    0.000011736   -0.000000076
     32        7          -0.028451957   -0.078027829    0.000003691
     33        7           0.034738961    0.026646911    0.000008347
     34        7           0.028445717   -0.078006629   -0.000000297
     35        7          -0.034740972    0.026645008    0.000006283
     36        6           0.000741380   -0.012870770   -0.000002221
     37        1           0.001245279    0.001138521    0.001064074
     38        1           0.001244546    0.001139350   -0.001064347
     39        1           0.000342164    0.003602990    0.000001877
     40        6          -0.000737788   -0.012870233   -0.000002527
     41        1          -0.001245041    0.001139488   -0.001063753
     42        1          -0.001246249    0.001137792    0.001063257
     43        1          -0.000343081    0.003602666    0.000002188
     44       27          -0.000002457    0.055317603   -0.000001046
 -------------------------------------------------------------------
 Cartesian Forces:  Max     0.103991709 RMS     0.020607407

 GradGradGradGradGradGradGradGradGradGradGradGradGradGradGradGradGradGrad
 Berny optimization.
 Search for a local minimum.
 Step number   1 out of a maximum of    2
 All quantities printed in internal units (Hartrees-Bohrs-Radians)
 Second derivative matrix not updated -- first step.
 ITU=  0
     Eigenvalues ---    0.00056   0.00057   0.00200   0.00250   0.00251
     Eigenvalues ---    0.00392   0.00452   0.00616   0.00673   0.00675
     Eigenvalues ---    0.00690   0.00829   0.00847   0.01338   0.01580
     Eigenvalues ---    0.01823   0.02054   0.02084   0.02557   0.02571
     Eigenvalues ---    0.03089   0.03174   0.04116   0.04220   0.04487
     Eigenvalues ---    0.04526   0.04700   0.05391   0.05547   0.06227
     Eigenvalues ---    0.06292   0.06918   0.06949   0.07082   0.07083
     Eigenvalues ---    0.07086   0.07295   0.07689   0.07753   0.09608
     Eigenvalues ---    0.10098   0.10264   0.10408   0.11665   0.11928
     Eigenvalues ---    0.12007   0.12342   0.12443   0.12881   0.13398
     Eigenvalues ---    0.13399   0.13465   0.13708   0.14840   0.15486
     Eigenvalues ---    0.15714   0.15908   0.19735   0.20191   0.20533
     Eigenvalues ---    0.21079   0.21977   0.24104   0.25186   0.28651
     Eigenvalues ---    0.29592   0.30061   0.30916   0.30987   0.31975
     Eigenvalues ---    0.32033   0.35126   0.35812   0.36955   0.38190
     Eigenvalues ---    0.38252   0.41429   0.41846   0.44688   0.48011
     Eigenvalues ---    0.48577   0.49257   0.49410   0.51213   0.52344
     Eigenvalues ---    0.53936   0.55844   0.57079   0.63421   0.67149
     Eigenvalues ---    0.69343   0.71455   0.72979   0.74353   0.87522
     Eigenvalues ---    0.90115   0.91041   0.91421   0.93301   0.94750
     Eigenvalues ---    0.95631   0.97295   0.99864   1.04170   1.12607
     Eigenvalues ---    1.15944   1.16473   1.19038   1.20988   1.24447
     Eigenvalues ---    1.31127   1.38177   1.38569   1.46615   1.47790
     Eigenvalues ---    1.50523   1.51488   1.54057   1.61994   1.65289
     Eigenvalues ---    1.66906   1.67724   1.79850   1.80805   1.90971
     Eigenvalues ---    1.94215
 Quadratic step=6.992D-01 exceeds max=3.000D-01 adjusted using Lamda=-9.619D-02.
 Angle between NR and scaled steps=  45.16 degrees.
 Angle between quadratic step and forces=  38.67 degrees.
 Linear search not attempted -- first point.
 B after Tr=    -0.000000   -0.001166   -0.000000
         Rot=    1.000000   -0.000000   -0.000000   -0.000000 Ang=  -0.00 deg.
 Variable       Old X    -DE/DX   Delta X   Delta X   Delta X     New X
                                 (Linear)    (Quad)   (Total)
    X1        0.00001  -0.00001   0.00000  -0.00001  -0.00001   0.00000
    Y1        1.55350  -0.10399   0.00000  -0.17233  -0.17350   1.38000
    Z1        0.00022  -0.00001   0.00000  -0.00002  -0.00002   0.00020
    X2       -2.44980   0.08709   0.00000   0.09935   0.09935  -2.35045
    Y2        2.56326   0.05316   0.00000  -0.01199  -0.01316   2.55010
    Z2       -0.00000   0.00001   0.00000   0.00003   0.00003   0.00003
    X3       -2.36474  -0.00601   0.00000   0.02385   0.02385  -2.34089
    Y3        5.19537   0.00388   0.00000   0.01216   0.01099   5.20636
    Z3       -0.00001  -0.00000   0.00000  -0.00000   0.00000  -0.00001
    X4       -0.00000   0.00001   0.00000   0.00000   0.00000   0.00000
    Y4        6.39087   0.00904   0.00000   0.04471   0.04354   6.43440
    Z4        0.00002  -0.00000   0.00000  -0.00001  -0.00001   0.00002
    X5        2.36475   0.00600   0.00000  -0.02386  -0.02386   2.34089
    Y5        5.19536   0.00389   0.00000   0.01217   0.01100   5.20636
    Z5        0.00008  -0.00000   0.00000  -0.00000  -0.00000   0.00008
    X6        2.44978  -0.08706   0.00000  -0.09934  -0.09934   2.35044
    Y6        2.56327   0.05314   0.00000  -0.01199  -0.01316   2.55011
    Z6        0.00007   0.00001   0.00000   0.00003   0.00003   0.00010
    X7       -4.08342  -0.00134   0.00000   0.01297   0.01297  -4.07046
    Y7        6.29532   0.00823   0.00000   0.02317   0.02201   6.31733
    Z7       -0.00008  -0.00000   0.00000  -0.00001  -0.00001  -0.00008
    X8        0.00000   0.00000   0.00000   0.00000   0.00000   0.00000
    Y8        8.43938   0.00240   0.00000   0.04063   0.03947   8.47885
    Z8       -0.00002   0.00000   0.00000  -0.00000   0.00000  -0.00002
    X9        4.08343   0.00134   0.00000  -0.01297  -0.01297   4.07046
    Y9        6.29532   0.00823   0.00000   0.02317   0.02201   6.31733
    Z9        0.00010  -0.00000   0.00000  -0.00001  -0.00001   0.00009
   X10        6.98353  -0.01433   0.00000  -0.02870  -0.02870   6.95483
   Y10        1.10389  -0.00772   0.00000  -0.01475  -0.01592   1.08798
   Z10       -0.00005   0.00000   0.00000   0.00000   0.00000  -0.00005
   X11        3.62712   0.00086   0.00000  -0.03663  -0.03663   3.59050
   Y11       -1.70867   0.00585   0.00000   0.00083  -0.00034  -1.70901
   Z11        0.00018  -0.00000   0.00000  -0.00001  -0.00001   0.00017
   X12        7.90221   0.01711   0.00000  -0.00106  -0.00106   7.90115
   Y12       -1.40745   0.00809   0.00000   0.01021   0.00904  -1.39841
   Z12       -0.00017  -0.00000   0.00000   0.00000   0.00000  -0.00017
   X13        8.58950   0.01549   0.00000  -0.00669  -0.00669   8.58280
   Y13        3.15023   0.00490   0.00000  -0.00187  -0.00303   3.14720
   Z13       -0.00011  -0.00000   0.00000  -0.00000  -0.00000  -0.00011
   X14       10.47417   0.00302   0.00000   0.00217   0.00217  10.47634
   Y14       -1.89172   0.00748   0.00000   0.00649   0.00532  -1.88640
   Z14       -0.00036  -0.00000   0.00000  -0.00000  -0.00000  -0.00037
   X15       11.20435  -0.01528   0.00000  -0.02044  -0.02044  11.18392
   Y15        2.65560   0.00832   0.00000   0.00093  -0.00024   2.65536
   Z15       -0.00032   0.00000   0.00000   0.00000   0.00000  -0.00032
   X16        7.87963   0.00069   0.00000   0.00215   0.00215   7.88178
   Y16        5.07027  -0.00009   0.00000   0.00064  -0.00052   5.06974
   Z16        0.00002  -0.00000   0.00000  -0.00001  -0.00000   0.00001
   X17       12.10735   0.00149   0.00000   0.00079   0.00079  12.10814
   Y17        0.20088  -0.01471   0.00000  -0.01007  -0.01124   0.18964
   Z17       -0.00046   0.00000   0.00000   0.00000   0.00000  -0.00046
   X18       11.17310   0.00232   0.00000   0.01039   0.01039  11.18348
   Y18       -3.81680  -0.00045   0.00000   0.00553   0.00436  -3.81244
   Z18       -0.00046   0.00000   0.00000   0.00000   0.00000  -0.00046
   X19       12.50383   0.00136   0.00000  -0.00813  -0.00813  12.49570
   Y19        4.23982   0.00003   0.00000  -0.00313  -0.00430   4.23552
   Z19       -0.00037  -0.00000   0.00000  -0.00000  -0.00000  -0.00037
   X20       14.12700   0.00209   0.00000   0.00623   0.00623  14.13323
   Y20       -0.13462   0.00001   0.00000  -0.00176  -0.00293  -0.13755
   Z20       -0.00062  -0.00000   0.00000   0.00000   0.00000  -0.00062
   X21       -6.98350   0.01430   0.00000   0.02869   0.02869  -6.95481
   Y21        1.10386  -0.00769   0.00000  -0.01473  -0.01590   1.08797
   Z21       -0.00008   0.00000   0.00000   0.00000   0.00000  -0.00008
   X22       -3.62710  -0.00086   0.00000   0.03662   0.03662  -3.59048
   Y22       -1.70868   0.00585   0.00000   0.00083  -0.00034  -1.70902
   Z22        0.00014  -0.00001   0.00000  -0.00002  -0.00002   0.00012
   X23       -7.90222  -0.01708   0.00000   0.00108   0.00108  -7.90114
   Y23       -1.40746   0.00809   0.00000   0.01021   0.00905  -1.39841
   Z23       -0.00012  -0.00000   0.00000   0.00000   0.00000  -0.00012
   X24       -8.58951  -0.01547   0.00000   0.00671   0.00671  -8.58281
   Y24        3.15025   0.00487   0.00000  -0.00189  -0.00305   3.14720
   Z24       -0.00010  -0.00000   0.00000  -0.00000  -0.00000  -0.00011
   X25      -10.47414  -0.00305   0.00000  -0.00218  -0.00218 -10.47632
   Y25       -1.89174   0.00748   0.00000   0.00649   0.00532  -1.88642
   Z25       -0.00018  -0.00000   0.00000  -0.00000  -0.00000  -0.00019
   X26      -11.20435   0.01527   0.00000   0.02044   0.02044 -11.18391
   Y26        2.65558   0.00833   0.00000   0.00093  -0.00024   2.65534
   Z26       -0.00019   0.00000   0.00000  -0.00000  -0.00000  -0.00019
   X27       -7.87963  -0.00069   0.00000  -0.00215  -0.00215  -7.88178
   Y27        5.07025  -0.00008   0.00000   0.00065  -0.00052   5.06973
   Z27       -0.00005  -0.00000   0.00000  -0.00000  -0.00000  -0.00005
   X28      -12.10735  -0.00148   0.00000  -0.00078  -0.00078 -12.10813
   Y28        0.20087  -0.01472   0.00000  -0.01008  -0.01124   0.18962
   Z28       -0.00024   0.00000   0.00000   0.00000   0.00000  -0.00024
   X29      -11.17308  -0.00231   0.00000  -0.01039  -0.01039 -11.18347
   Y29       -3.81682  -0.00045   0.00000   0.00553   0.00437  -3.81245
   Z29       -0.00019   0.00000   0.00000   0.00000  -0.00000  -0.00020
   X30      -12.50383  -0.00135   0.00000   0.00814   0.00813 -12.49570
   Y30        4.23981   0.00002   0.00000  -0.00314  -0.00431   4.23550
   Z30       -0.00020  -0.00000   0.00000  -0.00000  -0.00000  -0.00020
   X31      -14.12699  -0.00209   0.00000  -0.00623  -0.00623 -14.13322
   Y31       -0.13464   0.00001   0.00000  -0.00177  -0.00293  -0.13757
   Z31       -0.00029  -0.00000   0.00000   0.00000   0.00000  -0.00029
   X32       -4.36797  -0.02845   0.00000   0.02961   0.02961  -4.33836
   Y32        0.91092  -0.07803   0.00000  -0.06901  -0.07017   0.84074
   Z32        0.00002   0.00000   0.00000   0.00001   0.00001   0.00004
   X33       -5.89625   0.03474   0.00000   0.05064   0.05064  -5.84561
   Y33       -3.03529   0.02665   0.00000   0.03267   0.03150  -3.00379
   Z33       -0.00008   0.00001   0.00000   0.00002   0.00002  -0.00006
   X34        4.36798   0.02845   0.00000  -0.02961  -0.02961   4.33836
   Y34        0.91090  -0.07801   0.00000  -0.06900  -0.07016   0.84074
   Z34        0.00014  -0.00000   0.00000   0.00000   0.00000   0.00014
   X35        5.89627  -0.03474   0.00000  -0.05064  -0.05064   5.84563
   Y35       -3.03528   0.02665   0.00000   0.03266   0.03150  -3.00378
   Z35       -0.00006   0.00001   0.00000   0.00001   0.00001  -0.00005
   X36        6.03952   0.00074   0.00000  -0.01259  -0.01259   6.02693
   Y36       -5.72330  -0.01287   0.00000   0.00699   0.00583  -5.71747
   Z36        0.00002  -0.00000   0.00000  -0.00000  -0.00000   0.00001
   X37        7.01304   0.00125   0.00000   0.00195   0.00195   7.01499
   Y37       -6.42466   0.00114   0.00000   0.01456   0.01339  -6.41127
   Z37       -1.69092   0.00106   0.00000   0.00493   0.00493  -1.68600
   X38        7.01219   0.00124   0.00000   0.00195   0.00195   7.01413
   Y38       -6.42468   0.00114   0.00000   0.01455   0.01339  -6.41130
   Z38        1.69145  -0.00106   0.00000  -0.00493  -0.00493   1.68652
   X39        4.12845   0.00034   0.00000  -0.00830  -0.00830   4.12015
   Y39       -6.51218   0.00360   0.00000   0.01196   0.01080  -6.50138
   Z39       -0.00051   0.00000   0.00000   0.00001   0.00001  -0.00050
   X40       -6.03951  -0.00074   0.00000   0.01260   0.01260  -6.02692
   Y40       -5.72331  -0.01287   0.00000   0.00700   0.00583  -5.71748
   Z40        0.00009  -0.00000   0.00000  -0.00000  -0.00000   0.00009
   X41       -7.01205  -0.00125   0.00000  -0.00195  -0.00195  -7.01400
   Y41       -6.42466   0.00114   0.00000   0.01456   0.01339  -6.41127
   Z41        1.69160  -0.00106   0.00000  -0.00493  -0.00493   1.68667
   X42       -7.01314  -0.00125   0.00000  -0.00195  -0.00195  -7.01509
   Y42       -6.42470   0.00114   0.00000   0.01456   0.01339  -6.41131
   Z42       -1.69077   0.00106   0.00000   0.00493   0.00493  -1.68584
   X43       -4.12843  -0.00034   0.00000   0.00830   0.00830  -4.12013
   Y43       -6.51218   0.00360   0.00000   0.01196   0.01079  -6.50138
   Z43       -0.00057   0.00000   0.00000   0.00001   0.00001  -0.00056
   X44        0.00002  -0.00000   0.00000  -0.00001  -0.00001   0.00001
   Y44       -2.32372   0.05532   0.00000   0.08209   0.08093  -2.24279
   Z44        0.00029  -0.00000   0.00000  -0.00003  -0.00003   0.00026
         Item               Value     Threshold  Converged?
 Maximum Force            0.103992     0.000450     NO 
 RMS     Force            0.020607     0.000300     NO 
 Maximum Displacement     0.173501     0.001800     NO 
 RMS     Displacement     0.026107     0.001200     NO 
 Predicted change in Energy=-3.206113D-02
 GradGradGradGradGradGradGradGradGradGradGradGradGradGradGradGradGradGrad

 Unable to Open any file for archive entry.
 1\1\GINC-X11P1N5\Force\UPBE1PBE\GenECP\C22H17Co1N4\MAYUMIAO\17-Jul-202
 4\0\\# pbe1pbe em=gd3bj genecp g09default scf=(xqc,maxcycle=64) force 
 guess=read nosymm\\Title Card\\0,1\C,0.00000491,0.82207822,0.00011715\
 C,-1.29637781,1.35641954,-0.00000015\C,-1.2513656,2.74926942,-0.000006
 28\C,-0.00000104,3.38190031,0.00001321\C,1.25137265,2.74926506,0.00004
 178\C,1.29636893,1.35642336,0.00003876\H,-2.16085393,3.33134156,-0.000
 04024\H,0.00000006,4.46592818,-0.00001151\H,2.16085615,3.33134226,0.00
 005113\C,3.69552416,0.58415429,-0.0000286\C,1.91939158,-0.9041894,0.00
 009735\C,4.18166935,-0.74478935,-0.00008828\C,4.54536677,1.66703154,-0
 .00005616\C,5.54269323,-1.00105669,-0.00019225\C,5.92908854,1.40528136
 ,-0.00017067\H,4.16972038,2.68306868,0.00000832\C,6.40693421,0.1062991
 6,-0.00024365\H,5.91254838,-2.01976343,-0.00024225\H,6.61673976,2.2436
 1569,-0.00019528\H,7.47568758,-0.07123616,-0.00032924\C,-3.69551019,0.
 58413876,-0.00004209\C,-1.91937984,-0.90419699,0.00007301\C,-4.1816753
 5,-0.74479664,-0.00006322\C,-4.54537525,1.66703971,-0.00005384\C,-5.54
 267365,-1.00106635,-0.00009718\C,-5.92908653,1.40527074,-0.00009987\H,
 -4.16972084,2.68306144,-0.00002414\C,-6.40693473,0.10629561,-0.0001255
 3\H,-5.9125413,-2.01977256,-0.00010298\H,-6.61674324,2.24360965,-0.000
 10724\H,-7.47568126,-0.07124747,-0.00015403\N,-2.31143,0.48203606,0.00
 001162\N,-3.12016285,-1.60620445,-0.0000402\N,2.31143398,0.48202709,0.
 00007503\N,3.12017106,-1.60619929,-0.0000316\C,3.19597841,-3.02863857,
 0.00000924\H,3.71114019,-3.39978262,-0.89479802\H,3.71068922,-3.399795
 63,0.89507503\H,2.18468117,-3.44609525,-0.00027097\C,-3.19597207,-3.02
 864364,0.00004725\H,-3.71061672,-3.39978305,0.8951573\H,-3.71119168,-3
 .39980683,-0.89471587\H,-2.18467154,-3.4460959,-0.00029928\Co,0.000010
 52,-1.22966008,0.00015439\\Version=ES64L-G16RevC.01\HF=-1212.1053896\S
 2=0.\S2-1=0.\S2A=0.\RMSD=4.908e-09\RMSF=2.061e-02\Dipole=0.000024,-1.4
 971237,-0.0000874\Quadrupole=13.3566912,7.1645653,-20.5212565,0.000122
 7,-0.0003965,0.0000941\PG=C01 [X(C22H17Co1N4)]\\@
 The archive entry for this job was punched.


 THERE IS NOTHING NOBLE IN BEING SUPERIOR TO SOME OTHER MAN.
 TRUE NOBILITY IS BEING SUPERIOR TO YOUR FORMER SELF.

                                                   -- HINDU PROVERB
 Job cpu time:       0 days  0 hours 33 minutes  1.9 seconds.
 Elapsed time:       0 days  0 hours  0 minutes 36.1 seconds.
 File lengths (MBytes):  RWF=    184 Int=      0 D2E=      0 Chk=    162 Scr=      1
 Normal termination of Gaussian 16 at Wed Jul 17 21:08:05 2024.
