 Entering Gaussian System, Link 0=g16
 Input=JOBS/22_B.gjf
 Output=JOBS/22_B.log
 Initial command:
 /data/app/gaussian/C01-avx2//g16/l1.exe "/tmp/Gau-2072611.inp" -scrdir="/tmp/"
 Entering Link 1 = /data/app/gaussian/C01-avx2//g16/l1.exe PID=   2072612.
  
 Copyright (c) 1988-2019, Gaussian, Inc.  All Rights Reserved.
  
 This is part of the Gaussian(R) 16 program.  It is based on
 the Gaussian(R) 09 system (copyright 2009, Gaussian, Inc.),
 the Gaussian(R) 03 system (copyright 2003, Gaussian, Inc.),
 the Gaussian(R) 98 system (copyright 1998, Gaussian, Inc.),
 the Gaussian(R) 94 system (copyright 1995, Gaussian, Inc.),
 the Gaussian 92(TM) system (copyright 1992, Gaussian, Inc.),
 the Gaussian 90(TM) system (copyright 1990, Gaussian, Inc.),
 the Gaussian 88(TM) system (copyright 1988, Gaussian, Inc.),
 the Gaussian 86(TM) system (copyright 1986, Carnegie Mellon
 University), and the Gaussian 82(TM) system (copyright 1983,
 Carnegie Mellon University). Gaussian is a federally registered
 trademark of Gaussian, Inc.
  
 This software contains proprietary and confidential information,
 including trade secrets, belonging to Gaussian, Inc.
  
 This software is provided under written license and may be
 used, copied, transmitted, or stored only in accord with that
 written license.
  
 The following legend is applicable only to US Government
 contracts under FAR:
  
                    RESTRICTED RIGHTS LEGEND
  
 Use, reproduction and disclosure by the US Government is
 subject to restrictions as set forth in subparagraphs (a)
 and (c) of the Commercial Computer Software - Restricted
 Rights clause in FAR 52.227-19.
  
 Gaussian, Inc.
 340 Quinnipiac St., Bldg. 40, Wallingford CT 06492
  
  
 ---------------------------------------------------------------
 Warning -- This program may not be used in any manner that
 competes with the business of Gaussian, Inc. or will provide
 assistance to any competitor of Gaussian, Inc.  The licensee
 of this program is prohibited from giving any competitor of
 Gaussian, Inc. access to this program.  By using this program,
 the user acknowledges that Gaussian, Inc. is engaged in the
 business of creating and licensing software in the field of
 computational chemistry and represents and warrants to the
 licensee that it is not a competitor of Gaussian, Inc. and that
 it will not use this program in any manner prohibited above.
 ---------------------------------------------------------------
  

 Cite this work as:
 Gaussian 16, Revision C.01,
 M. J. Frisch, G. W. Trucks, H. B. Schlegel, G. E. Scuseria, 
 M. A. Robb, J. R. Cheeseman, G. Scalmani, V. Barone, 
 G. A. Petersson, H. Nakatsuji, X. Li, M. Caricato, A. V. Marenich, 
 J. Bloino, B. G. Janesko, R. Gomperts, B. Mennucci, H. P. Hratchian, 
 J. V. Ortiz, A. F. Izmaylov, J. L. Sonnenberg, D. Williams-Young, 
 F. Ding, F. Lipparini, F. Egidi, J. Goings, B. Peng, A. Petrone, 
 T. Henderson, D. Ranasinghe, V. G. Zakrzewski, J. Gao, N. Rega, 
 G. Zheng, W. Liang, M. Hada, M. Ehara, K. Toyota, R. Fukuda, 
 J. Hasegawa, M. Ishida, T. Nakajima, Y. Honda, O. Kitao, H. Nakai, 
 T. Vreven, K. Throssell, J. A. Montgomery, Jr., J. E. Peralta, 
 F. Ogliaro, M. J. Bearpark, J. J. Heyd, E. N. Brothers, K. N. Kudin, 
 V. N. Staroverov, T. A. Keith, R. Kobayashi, J. Normand, 
 K. Raghavachari, A. P. Rendell, J. C. Burant, S. S. Iyengar, 
 J. Tomasi, M. Cossi, J. M. Millam, M. Klene, C. Adamo, R. Cammi, 
 J. W. Ochterski, R. L. Martin, K. Morokuma, O. Farkas, 
 J. B. Foresman, and D. J. Fox, Gaussian, Inc., Wallingford CT, 2019.
 
 ******************************************
 Gaussian 16:  ES64L-G16RevC.01  3-Jul-2019
                17-Jul-2024 
 ******************************************
 %chk=b.chk
 %nprocshared=56
 Will use up to   56 processors via shared memory.
 %mem=96gb
 ----------------------------------------------------------------------
 # pbe1pbe em=gd3bj genecp g09default scf=(xqc,maxcycle=64) force guess
 =read nosymm
 ----------------------------------------------------------------------
 1/10=7,30=1,38=1,158=3,167=1/1,3;
 2/12=2,15=1,17=6,18=5,40=1/2;
 3/5=7,11=2,16=1,17=8,25=1,27=10,30=1,71=1,74=-13,75=-4,116=-2,124=41,158=3/1,2,3;
 4/5=1,60=-1/1;
 5/5=2,7=64,8=3,13=1,38=6,87=10/2,8;
 6/7=2,8=2,9=2,10=2,28=1,87=10/1;
 7/29=1,30=1,87=10/1,2,3,16;
 1/10=7,30=1,158=3,167=1/3;
 99//99;
 Using 2006 physical constants.
 ----------
 Title Card
 ----------
 Symbolic Z-matrix:
 Charge =  0 Multiplicity = 3
 6                     0.        0.82208   0.00012 
 6                    -1.29638   1.35642  0. 
 6                    -1.25137   2.74927  -0.00001 
 6                    0.         3.3819    0.00001 
 6                     1.25137   2.74927   0.00004 
 6                     1.29637   1.35642   0.00004 
 1                    -2.16085   3.33134  -0.00004 
 1                     0.        4.46593  -0.00001 
 1                     2.16086   3.33134   0.00005 
 6                     3.69552   0.58415  -0.00003 
 6                     1.91939  -0.90419   0.0001 
 6                     4.18167  -0.74479  -0.00009 
 6                     4.54537   1.66703  -0.00006 
 6                     5.54269  -1.00106  -0.00019 
 6                     5.92909   1.40528  -0.00017 
 1                     4.16972   2.68307   0.00001 
 6                     6.40693   0.1063   -0.00024 
 1                     5.91255  -2.01976  -0.00024 
 1                     6.61674   2.24362  -0.0002 
 1                     7.47569  -0.07124  -0.00033 
 6                    -3.69551   0.58414  -0.00004 
 6                    -1.91938  -0.9042    0.00007 
 6                    -4.18168  -0.7448   -0.00006 
 6                    -4.54538   1.66704  -0.00005 
 6                    -5.54267  -1.00107  -0.0001 
 6                    -5.92909   1.40527  -0.0001 
 1                    -4.16972   2.68306  -0.00002 
 6                    -6.40693   0.1063   -0.00013 
 1                    -5.91254  -2.01977  -0.0001 
 1                    -6.61674   2.24361  -0.00011 
 1                    -7.47568  -0.07125  -0.00015 
 7                    -2.31143   0.48204   0.00001 
 7                    -3.12016  -1.6062   -0.00004 
 7                     2.31143   0.48203   0.00008 
 7                     3.12017  -1.6062   -0.00003 
 6                     3.19598  -3.02864   0.00001 
 1                     3.71114  -3.39978  -0.8948 
 1                     3.71069  -3.3998    0.89508 
 1                     2.18468  -3.4461   -0.00027 
 6                    -3.19597  -3.02864   0.00005 
 1                    -3.71062  -3.39978   0.89516 
 1                    -3.71119  -3.39981  -0.89472 
 1                    -2.18467  -3.4461   -0.0003 
 27                    0.00001  -1.22966   0.00015 
 

 GradGradGradGradGradGradGradGradGradGradGradGradGradGradGradGradGradGrad
 Berny optimization.
 Initialization pass.
 Trust Radius=3.00D-01 FncErr=1.00D-07 GrdErr=1.00D-07 EigMax=2.50D+02 EigMin=1.00D-04
 Number of steps in this run=      2 maximum allowed number of steps=      2.
 GradGradGradGradGradGradGradGradGradGradGradGradGradGradGradGradGradGrad

                          Input orientation:                          
 ---------------------------------------------------------------------
 Center     Atomic      Atomic             Coordinates (Angstroms)
 Number     Number       Type             X           Y           Z
 ---------------------------------------------------------------------
      1          6           0        0.000005    0.822078    0.000117
      2          6           0       -1.296378    1.356420   -0.000000
      3          6           0       -1.251366    2.749269   -0.000006
      4          6           0       -0.000001    3.381900    0.000013
      5          6           0        1.251373    2.749265    0.000042
      6          6           0        1.296369    1.356423    0.000039
      7          1           0       -2.160854    3.331342   -0.000040
      8          1           0        0.000000    4.465928   -0.000012
      9          1           0        2.160856    3.331342    0.000051
     10          6           0        3.695524    0.584154   -0.000029
     11          6           0        1.919392   -0.904189    0.000097
     12          6           0        4.181669   -0.744789   -0.000088
     13          6           0        4.545367    1.667032   -0.000056
     14          6           0        5.542693   -1.001057   -0.000192
     15          6           0        5.929089    1.405281   -0.000171
     16          1           0        4.169720    2.683069    0.000008
     17          6           0        6.406934    0.106299   -0.000244
     18          1           0        5.912548   -2.019763   -0.000242
     19          1           0        6.616740    2.243616   -0.000195
     20          1           0        7.475688   -0.071236   -0.000329
     21          6           0       -3.695510    0.584139   -0.000042
     22          6           0       -1.919380   -0.904197    0.000073
     23          6           0       -4.181675   -0.744797   -0.000063
     24          6           0       -4.545375    1.667040   -0.000054
     25          6           0       -5.542674   -1.001066   -0.000097
     26          6           0       -5.929087    1.405271   -0.000100
     27          1           0       -4.169721    2.683061   -0.000024
     28          6           0       -6.406935    0.106296   -0.000126
     29          1           0       -5.912541   -2.019773   -0.000103
     30          1           0       -6.616743    2.243610   -0.000107
     31          1           0       -7.475681   -0.071247   -0.000154
     32          7           0       -2.311430    0.482036    0.000012
     33          7           0       -3.120163   -1.606204   -0.000040
     34          7           0        2.311434    0.482027    0.000075
     35          7           0        3.120171   -1.606199   -0.000032
     36          6           0        3.195978   -3.028639    0.000009
     37          1           0        3.711140   -3.399783   -0.894798
     38          1           0        3.710689   -3.399796    0.895075
     39          1           0        2.184681   -3.446095   -0.000271
     40          6           0       -3.195972   -3.028644    0.000047
     41          1           0       -3.710617   -3.399783    0.895157
     42          1           0       -3.711192   -3.399807   -0.894716
     43          1           0       -2.184672   -3.446096   -0.000299
     44         27           0        0.000011   -1.229660    0.000154
 ---------------------------------------------------------------------
                    Distance matrix (angstroms):
                    1          2          3          4          5
     1  C    0.000000
     2  C    1.402187   0.000000
     3  C    2.297824   1.393577   0.000000
     4  C    2.559822   2.404821   1.402189   0.000000
     5  C    2.297819   2.903627   2.502738   1.402200   0.000000
     6  C    1.402171   2.592747   2.903614   2.404814   1.393568
     7  H    3.311452   2.155838   1.079804   2.161444   3.461517
     8  H    3.643850   3.368923   2.124343   1.084028   2.124351
     9  H    3.311447   3.981556   3.461512   2.161449   1.079803
    10  C    3.703170   5.051285   5.399948   4.635115   3.265208
    11  C    2.581481   3.930843   4.837506   4.696236   3.714025
    12  C    4.465579   5.867204   6.459591   5.875026   4.560160
    13  C    4.623231   5.849997   5.896893   4.858101   3.467222
    14  C    5.834828   7.233988   7.760424   7.066242   5.699153
    15  C    5.957697   7.225632   7.305151   6.249890   4.866962
    16  H    4.566160   5.624787   5.421490   4.227877   2.919098
    17  C    6.446789   7.804090   8.101534   7.195720   5.793538
    18  H    6.560048   7.960354   8.606122   8.008509   6.668597
    19  H    6.767714   7.962697   7.884337   6.713937   5.389141
    20  H    7.528867   8.887482   9.171516   8.234687   6.833544
    21  C    3.703167   2.520368   3.265216   4.635111   5.399946
    22  C    2.581485   2.344892   3.714036   4.696237   4.837505
    23  C    4.465596   3.569321   4.560177   5.875034   6.459604
    24  C    4.623250   3.263812   3.467235   4.858104   5.896906
    25  C    5.834821   4.856827   5.699153   7.066231   7.760416
    26  C    5.957704   4.632966   4.866971   6.249890   7.305157
    27  H    4.566166   3.164819   2.919106   4.227876   5.421498
    28  C    6.446799   5.261236   5.793548   7.195720   8.101541
    29  H    6.560055   5.719059   6.668607   8.008508   8.606125
    30  H    6.767725   5.393829   5.389153   6.713939   7.884347
    31  H    7.528872   6.342084   6.833551   8.234684   9.171519
    32  N    2.336313   1.339730   2.502815   3.708358   4.223019
    33  N    3.953733   3.478984   4.739468   5.883587   6.170935
    34  N    2.336309   3.712259   4.223024   3.708368   2.502818
    35  N    3.953728   5.318178   6.170935   5.883588   4.739460
    36  C    5.004225   6.277738   7.291302   7.163051   6.096365
    37  H    5.691881   6.964005   7.952230   7.782318   6.682962
    38  H    5.691603   6.963725   7.951991   7.782144   6.682834
    39  H    4.794801   5.931435   7.084417   7.168986   6.265266
    40  C    5.004231   4.778832   6.096374   7.163051   7.291303
    41  H    5.691566   5.408449   6.682820   7.782106   7.951941
    42  H    5.691926   5.408653   6.682992   7.782354   7.952278
    43  H    4.794802   4.883976   6.265270   7.168983   7.084412
    44  Co   2.051738   2.892824   4.171070   4.611560   4.171061
                    6          7          8          9         10
     6  C    0.000000
     7  H    3.981544   0.000000
     8  H    3.368916   2.440610   0.000000
     9  H    2.155839   4.321710   2.440611   0.000000
    10  C    2.520386   6.468709   5.359577   3.146784   0.000000
    11  C    2.344894   5.881167   5.702826   4.242409   2.317286
    12  C    3.569321   7.539393   6.681163   4.549564   1.415072
    13  C    3.263811   6.909654   5.337994   2.907889   1.376538
    14  C    4.856849   8.838230   7.785202   5.496044   2.434117
    15  C    4.632977   8.316061   6.672455   4.231936   2.379718
    16  H    3.164828   6.363680   4.534882   2.110875   2.151814
    17  C    5.261244   9.154665   7.749527   5.331987   2.753196
    18  H    5.719069   9.685770   8.776242   6.535253   3.419881
    19  H    5.393835   8.844733   6.979965   4.586725   3.359660
    20  H    6.342097  10.219612   8.744814   6.310703   3.836557
    21  C    5.051265   3.146791   5.359579   6.468706   7.391034
    22  C    3.930833   4.242416   5.702829   5.881166   5.808815
    23  C    5.867205   4.549574   6.681172   7.539404   7.988516
    24  C    5.849996   2.907893   5.337997   6.909663   8.311743
    25  C    7.233966   5.496041   7.785195   8.838220   9.373218
    26  C    7.225621   4.231941   6.672458   8.316064   9.659574
    27  H    5.624776   2.110880   4.534885   6.363684   8.140485
    28  C    7.804083   5.331991   7.749530   9.154669  10.113754
    29  H    7.960345   6.535257   8.776244   9.685772   9.954665
    30  H    7.962691   4.586732   6.979971   8.844739  10.444934
    31  H    8.887469   6.310705   8.744814  10.219612  11.190415
    32  N    3.712245   2.853281   4.605877   5.302819   6.007822
    33  N    5.318169   5.029874   6.826874   7.229698   7.158999
    34  N    1.339748   5.302825   4.605887   2.853291   1.387853
    35  N    3.478992   7.229698   6.826873   5.029871   2.264659
    36  C    4.778837   8.315347   8.147565   6.443666   3.647166
    37  H    5.408636   8.977134   8.743146   6.965068   4.083211
    38  H    5.408480   8.976885   8.742997   6.965003   4.083295
    39  H    4.883982   8.050921   8.208102   6.777479   4.304133
    40  C    6.277734   6.443670   8.147567   8.315349   7.781069
    41  H    6.963666   6.964997   8.742964   8.976829   8.457188
    42  H    6.964049   6.965081   8.743182   8.977189   8.457650
    43  H    5.931428   6.777479   8.208101   8.050918   7.128788
    44  Co   2.892814   5.046986   5.695588   5.046979   4.116642
                   11         12         13         14         15
    11  C    0.000000
    12  C    2.267886   0.000000
    13  C    3.675177   2.439089   0.000000
    14  C    3.624596   1.384940   2.848395   0.000000
    15  C    4.627237   2.770610   1.408261   2.437163   0.000000
    16  H    4.234666   3.427879   1.083255   3.931645   2.174423
    17  C    4.599905   2.382468   2.429263   1.404688   1.384085
    18  H    4.146059   2.149768   3.932130   1.083769   3.425085
    19  H    5.654534   3.854884   2.150124   3.417817   1.084283
    20  H    5.618384   3.362176   3.407104   2.145002   2.138241
    21  C    5.808807   7.988492   8.311721   9.373220   9.659564
    22  C    3.838771   6.103131   6.957310   7.462702   8.181207
    23  C    6.103149   8.363345   9.054180   9.727745  10.336846
    24  C    6.957329   9.054183   9.090742  10.434935  10.477734
    25  C    7.462694   9.727719  10.434908  11.085367  11.721426
    26  C    8.181211  10.336834  10.477724  11.721439  11.858175
    27  H    7.067224   9.027507   8.774114  10.387671  10.179326
    28  C    8.387419  10.622753  11.062947  12.000827  12.404226
    29  H    7.910986  10.174413  11.088750  11.500443  12.327011
    30  H    9.098035  11.204296  11.176992  12.584902  12.573810
    31  H    9.431924  11.676792  12.146078  13.051537  13.485844
    32  N    4.452131   6.607983   6.958439   7.992923   8.292076
    33  N    5.088215   7.352468   8.335132   8.683967   9.537190
    34  N    1.440588   2.236707   2.528773   3.555358   3.733607
    35  N    1.390931   1.367043   3.570045   2.496960   4.118135
    36  C    2.478499   2.487479   4.885710   3.101316   5.208602
    37  H    3.199873   2.840932   5.212399   3.147823   5.367336
    38  H    3.199654   2.841161   5.212551   3.148284   5.367637
    39  H    2.555712   3.359318   5.631776   4.153849   6.128331
    40  C    5.538976   7.723055   9.054153   8.970807  10.145266
    41  H    6.223031   8.374881   9.728067   9.601004  10.808061
    42  H    6.223525   8.375365   9.728516   9.601487  10.808519
    43  H    4.827486   6.915732   8.452070   8.104960   9.453516
    44  Co   1.946781   4.209676   5.389906   5.547395   6.488211
                   16         17         18         19         20
    16  H    0.000000
    17  C    3.412458   0.000000
    18  H    5.015384   2.182787   0.000000
    19  H    2.486166   2.147589   4.321144   0.000000
    20  H    4.302977   1.083399   2.498032   2.469075   0.000000
    21  C    8.140477  10.113739   9.954652  10.444920  11.190406
    22  C    7.067221   8.387408   7.910979   9.098025   9.431920
    23  C    9.027517  10.622759  10.174423  11.204302  11.676806
    24  C    8.774121  11.062956  11.088764  11.176997  12.146092
    25  C   10.387658  12.000808  11.500428  12.584884  13.051525
    26  C   10.179326  12.404222  12.327010  12.573805  13.485846
    27  H    8.339441  10.886016  11.125139  10.795409  11.966691
    28  C   10.886018  12.813869  12.501592  13.197887  13.883757
    29  H   11.125139  12.501586  11.825090  13.234779  13.529282
    30  H   10.795412  13.197889  13.234784  13.233483  14.281286
    31  H   11.966689  13.883751  13.529280  14.281279  14.951369
    32  N    6.844695   8.726457   8.596093   9.100295   9.802744
    33  N    8.458148   9.679785   9.042174  10.470358  10.706455
    34  N    2.880592   4.112699   4.384858   4.651758   5.193806
    35  N    4.415809   3.706139   2.822837   5.200680   4.618077
    36  C    5.794115   4.487546   2.897858   6.284765   5.202128
    37  H    6.165392   4.512221   2.747887   6.410208   5.104029
    38  H    6.165476   4.512653   2.748502   6.410517   5.104534
    39  H    6.442595   5.517873   3.991418   7.212209   6.275701
    40  C    9.320788  10.101667   9.164223  11.139391  11.073869
    41  H    9.995103  10.745194   9.762761  11.802707  11.705320
    42  H    9.995533  10.745666   9.763246  11.803159  11.705792
    43  H    8.828644   9.297053   8.221885  10.480346  10.232899
    44  Co   5.718035   6.544728   5.965096   7.472935   7.564899
                   21         22         23         24         25
    21  C    0.000000
    22  C    2.317279   0.000000
    23  C    1.415071   2.267904   0.000000
    24  C    1.376570   3.675202   2.439105   0.000000
    25  C    2.434109   3.624588   1.384915   2.848402   0.000000
    26  C    2.379731   4.627244   2.770602   1.408254   2.437165
    27  H    2.151825   4.234673   3.427879   1.083243   3.931640
    28  C    2.753209   4.599918   2.382465   2.429264   1.404706
    29  H    3.419880   4.146064   2.149758   3.932140   1.083773
    30  H    3.359679   5.654548   3.854884   2.150116   3.417828
    31  H    3.836564   5.618389   3.362164   3.407101   2.145013
    32  N    1.387841   1.440606   2.236724   2.528783   3.555352
    33  N    2.264647   1.390933   1.367052   3.570064   2.496948
    34  N    6.007812   4.452123   6.607993   6.958454   7.992908
    35  N    7.158987   5.088210   7.352481   8.335148   8.683954
    36  C    7.781052   5.538966   7.723063   9.054168   8.970791
    37  H    8.457582   6.223463   8.375323   9.728479   9.601427
    38  H    8.457231   6.223080   8.374945   9.728138   9.601040
    39  H    7.128775   4.827480   6.915744   8.452089   8.104948
    40  C    3.647154   2.478500   2.487482   4.885727   3.101303
    41  H    4.083288   3.199634   2.841174   5.212573   3.148294
    42  H    4.083198   3.199891   2.840922   5.212410   3.147797
    43  H    4.304117   2.555705   3.359322   5.631792   4.153835
    44  Co   4.116642   1.946789   4.209702   5.389935   5.547396
                   26         27         28         29         30
    26  C    0.000000
    27  H    2.174423   0.000000
    28  C    1.384079   3.412455   0.000000
    29  H    3.425083   5.015383   2.182794   0.000000
    30  H    1.084290   2.486169   2.147587   4.321149   0.000000
    31  H    2.138238   4.302975   1.083393   2.498031   2.469076
    32  N    3.733604   2.880583   4.112705   4.384866   4.651759
    33  N    4.118135   4.415810   3.706147   2.822838   5.200687
    34  N    8.292078   6.844700   8.726461   8.596090   9.100303
    35  N    9.537191   8.458149   9.679793   9.042175  10.470364
    36  C   10.145263   9.320786  10.101671   9.164221  11.139394
    37  H   10.808469   9.995478  10.745625   9.763204  11.803115
    38  H   10.808112   9.995160  10.745249   9.762806  11.802764
    39  H    9.453517   8.828646   9.297061   8.221886  10.480354
    40  C    5.208600   5.794114   4.487552   2.897856   6.284770
    41  H    5.367647   6.165478   4.512677   2.748525   6.410534
    42  H    5.367324   6.165388   4.512214   2.747866   6.410203
    43  H    6.128328   6.442592   5.517879   3.991417   7.212212
    44  Co   6.488224   5.718046   6.544748   5.965111   7.472953
                   31         32         33         34         35
    31  H    0.000000
    32  N    5.193805   0.000000
    33  N    4.618077   2.239374   0.000000
    34  N    9.802741   4.622864   5.819189   0.000000
    35  N   10.706454   5.819194   6.240334   2.239363   0.000000
    36  C   11.073865   6.531185   6.474331   3.620386   1.424458
    37  H   11.705747   7.220842   7.119285   4.222372   2.089687
    38  H   11.705364   7.220504   7.118900   4.222261   2.089717
    39  H   10.232898   5.970363   5.614852   3.930167   2.064064
    40  C    5.202125   3.620399   1.424458   6.531181   6.474335
    41  H    5.104551   4.222266   2.089722   7.220437   7.118846
    42  H    5.104011   4.222390   2.089682   7.220894   7.119340
    43  H    6.275698   3.930177   2.064060   5.970353   5.614853
    44  Co   7.564912   2.876223   3.142812   2.876204   3.142799
                   36         37         38         39         40
    36  C    0.000000
    37  H    1.097187   0.000000
    38  H    1.097191   1.789873   0.000000
    39  H    1.094071   1.769859   1.769884   0.000000
    40  C    6.391950   6.974718   6.974296   5.396823   0.000000
    41  H    6.974245   7.634554   7.421306   5.963093   1.097190
    42  H    6.974761   7.422332   7.634636   5.963513   1.097185
    43  H    5.396820   5.963461   5.963147   4.369353   1.094073
    44  Co   3.667497   4.391225   4.390844   3.112133   3.667512
                   41         42         43         44
    41  H    0.000000
    42  H    1.789873   0.000000
    43  H    1.769886   1.769855   0.000000
    44  Co   4.390811   4.391281   3.112141   0.000000
 Symmetry turned off by external request.
 Stoichiometry    C22H17CoN4(3)
 Framework group  C1[X(C22H17CoN4)]
 Deg. of freedom   126
 Full point group                 C1      NOp   1
 Rotational constants (GHZ):           0.4647009           0.1005249           0.0827340
 General basis read from cards:  (5D, 7F)
 ======================================================================================================
                                       Pseudopotential Parameters
 ======================================================================================================
  Center     Atomic      Valence      Angular      Power
  Number     Number     Electrons     Momentum     of R      Exponent        Coefficient   SO-Coeffient
 ======================================================================================================
    1          6
                                   No pseudopotential on this center.
    2          6
                                   No pseudopotential on this center.
    3          6
                                   No pseudopotential on this center.
    4          6
                                   No pseudopotential on this center.
    5          6
                                   No pseudopotential on this center.
    6          6
                                   No pseudopotential on this center.
    7          1
                                   No pseudopotential on this center.
    8          1
                                   No pseudopotential on this center.
    9          1
                                   No pseudopotential on this center.
   10          6
                                   No pseudopotential on this center.
   11          6
                                   No pseudopotential on this center.
   12          6
                                   No pseudopotential on this center.
   13          6
                                   No pseudopotential on this center.
   14          6
                                   No pseudopotential on this center.
   15          6
                                   No pseudopotential on this center.
   16          1
                                   No pseudopotential on this center.
   17          6
                                   No pseudopotential on this center.
   18          1
                                   No pseudopotential on this center.
   19          1
                                   No pseudopotential on this center.
   20          1
                                   No pseudopotential on this center.
   21          6
                                   No pseudopotential on this center.
   22          6
                                   No pseudopotential on this center.
   23          6
                                   No pseudopotential on this center.
   24          6
                                   No pseudopotential on this center.
   25          6
                                   No pseudopotential on this center.
   26          6
                                   No pseudopotential on this center.
   27          1
                                   No pseudopotential on this center.
   28          6
                                   No pseudopotential on this center.
   29          1
                                   No pseudopotential on this center.
   30          1
                                   No pseudopotential on this center.
   31          1
                                   No pseudopotential on this center.
   32          7
                                   No pseudopotential on this center.
   33          7
                                   No pseudopotential on this center.
   34          7
                                   No pseudopotential on this center.
   35          7
                                   No pseudopotential on this center.
   36          6
                                   No pseudopotential on this center.
   37          1
                                   No pseudopotential on this center.
   38          1
                                   No pseudopotential on this center.
   39          1
                                   No pseudopotential on this center.
   40          6
                                   No pseudopotential on this center.
   41          1
                                   No pseudopotential on this center.
   42          1
                                   No pseudopotential on this center.
   43          1
                                   No pseudopotential on this center.
   44         27           17
                                      F and up 
                                                     2        1.0000000        0.00000000    0.00000000
                                      S - F
                                                     2       23.6600000      283.96056600    0.00000000
                                                     2       10.6100000       47.15684600    0.00000000
                                      P - F
                                                     2       25.0400000      182.21223600    0.00000000
                                                     2       10.4400000       35.23335200    0.00000000
                                      D - F
                                                     2       29.5400000      -26.47533300    0.00000000
                                                     2       10.1800000       -1.82578700    0.00000000
 ======================================================================================================
   441 basis functions,   871 primitive gaussians,   473 cartesian basis functions
    98 alpha electrons       96 beta electrons
       nuclear repulsion energy      2487.4348247950 Hartrees.
 NAtoms=   44 NActive=   44 NUniq=   44 SFac= 1.00D+00 NAtFMM=   60 NAOKFM=F Big=F
 Integral buffers will be    131072 words long.
 Raffenetti 2 integral format.
 Two-electron integral symmetry is turned off.
 Nuclear repulsion after empirical dispersion term =     2487.3757059174 Hartrees.
 One-electron integrals computed using PRISM.
   1 Symmetry operations used in ECPInt.
 ECPInt:  NShTT=   11781 NPrTT=   71406 LenC2=    9522 LenP2D=   32051.
 LDataN:  DoStor=T MaxTD1= 6 Len=  172
 NBasis=   441 RedAO= T EigKep=  3.16D-04  NBF=   441
 NBsUse=   441 1.00D-06 EigRej= -1.00D+00 NBFU=   441
 Initial guess from the checkpoint file:  "b.chk"
 B after Tr=     0.000000   -0.002191    0.000001
         Rot=    1.000000    0.000001    0.000000    0.000000 Ang=   0.00 deg.
 Initial guess <Sx>= 0.0000 <Sy>= 0.0000 <Sz>= 1.0000 <S**2>= 2.2542 S= 1.0825
 Requested convergence on RMS density matrix=1.00D-08 within  64 cycles.
 Requested convergence on MAX density matrix=1.00D-06.
 Requested convergence on             energy=1.00D-06.
 No special actions if energy rises.
 EnCoef did     9 forward-backward iterations
 Restarting incremental Fock formation.
 SCF Done:  E(UPBE1PBE) =  -1212.10632880     A.U. after   26 cycles
            NFock= 26  Conv=0.28D-08     -V/T= 2.0550
 <Sx>= 0.0000 <Sy>= 0.0000 <Sz>= 1.0000 <S**2>= 2.3137 S= 1.1011
 <L.S>=  0.00000000000    
 Annihilation of the first spin contaminant:
 S**2 before annihilation     2.3137,   after     2.0080
 QCSCF skips out because SCF is already converged.

 **********************************************************************

            Population analysis using the SCF Density.

 **********************************************************************

 Alpha  occ. eigenvalues --  -14.45289 -14.45289 -14.45009 -14.45009 -10.28027
 Alpha  occ. eigenvalues --  -10.28026 -10.27404 -10.27403 -10.27313 -10.27313
 Alpha  occ. eigenvalues --  -10.27110 -10.27110 -10.26571 -10.26571 -10.23572
 Alpha  occ. eigenvalues --  -10.23572 -10.23497 -10.23497 -10.23004 -10.23004
 Alpha  occ. eigenvalues --  -10.22934 -10.22934 -10.22262 -10.22243 -10.22185
 Alpha  occ. eigenvalues --  -10.21046  -3.93283  -2.45312  -2.43499  -2.43032
 Alpha  occ. eigenvalues --   -1.05875  -1.05793  -0.97508  -0.97139  -0.88158
 Alpha  occ. eigenvalues --   -0.87732  -0.85673  -0.80675  -0.78983  -0.77774
 Alpha  occ. eigenvalues --   -0.77739  -0.75532  -0.74920  -0.73389  -0.72222
 Alpha  occ. eigenvalues --   -0.66934  -0.65527  -0.64383  -0.64224  -0.62728
 Alpha  occ. eigenvalues --   -0.61491  -0.58941  -0.57644  -0.56727  -0.54041
 Alpha  occ. eigenvalues --   -0.53167  -0.52342  -0.49871  -0.49787  -0.49174
 Alpha  occ. eigenvalues --   -0.49076  -0.48155  -0.47154  -0.46731  -0.46023
 Alpha  occ. eigenvalues --   -0.45750  -0.45344  -0.45074  -0.44851  -0.44346
 Alpha  occ. eigenvalues --   -0.42855  -0.41920  -0.41218  -0.39038  -0.38564
 Alpha  occ. eigenvalues --   -0.38253  -0.37660  -0.37357  -0.37078  -0.36967
 Alpha  occ. eigenvalues --   -0.36432  -0.35101  -0.34560  -0.34101  -0.32060
 Alpha  occ. eigenvalues --   -0.31144  -0.30213  -0.26881  -0.26632  -0.26461
 Alpha  occ. eigenvalues --   -0.26113  -0.25968  -0.24557  -0.23964  -0.22868
 Alpha  occ. eigenvalues --   -0.20714  -0.20461  -0.10262
 Alpha virt. eigenvalues --   -0.06186  -0.02984  -0.00230   0.00002   0.00352
 Alpha virt. eigenvalues --    0.02299   0.02802   0.03670   0.03927   0.05576
 Alpha virt. eigenvalues --    0.06170   0.07744   0.07861   0.09741   0.10247
 Alpha virt. eigenvalues --    0.12634   0.12991   0.13900   0.13930   0.14966
 Alpha virt. eigenvalues --    0.15250   0.15363   0.15899   0.15995   0.16521
 Alpha virt. eigenvalues --    0.16940   0.17660   0.17897   0.17899   0.18339
 Alpha virt. eigenvalues --    0.19497   0.19843   0.19936   0.19994   0.21228
 Alpha virt. eigenvalues --    0.21857   0.22012   0.22941   0.24015   0.25459
 Alpha virt. eigenvalues --    0.25769   0.26023   0.26532   0.27788   0.27808
 Alpha virt. eigenvalues --    0.28191   0.28659   0.30472   0.30908   0.31342
 Alpha virt. eigenvalues --    0.33014   0.33226   0.34098   0.34740   0.36307
 Alpha virt. eigenvalues --    0.37414   0.37758   0.39383   0.39446   0.41343
 Alpha virt. eigenvalues --    0.42222   0.44165   0.44302   0.46011   0.46780
 Alpha virt. eigenvalues --    0.47460   0.49237   0.51440   0.51598   0.52147
 Alpha virt. eigenvalues --    0.53778   0.53987   0.56165   0.56221   0.56327
 Alpha virt. eigenvalues --    0.57053   0.57100   0.57928   0.58446   0.58733
 Alpha virt. eigenvalues --    0.58747   0.59512   0.60293   0.61487   0.61489
 Alpha virt. eigenvalues --    0.61632   0.63133   0.63240   0.63291   0.63506
 Alpha virt. eigenvalues --    0.63537   0.63705   0.64180   0.64575   0.65090
 Alpha virt. eigenvalues --    0.65683   0.66056   0.66246   0.66953   0.67400
 Alpha virt. eigenvalues --    0.68421   0.68456   0.69458   0.70973   0.72035
 Alpha virt. eigenvalues --    0.72713   0.73396   0.74910   0.75512   0.76332
 Alpha virt. eigenvalues --    0.77210   0.77939   0.79412   0.79681   0.81085
 Alpha virt. eigenvalues --    0.81517   0.82424   0.83086   0.83788   0.84334
 Alpha virt. eigenvalues --    0.84667   0.85014   0.86461   0.86625   0.86911
 Alpha virt. eigenvalues --    0.87695   0.87977   0.89540   0.89901   0.90482
 Alpha virt. eigenvalues --    0.91196   0.91668   0.91898   0.93025   0.93512
 Alpha virt. eigenvalues --    0.93576   0.94864   0.95135   0.95454   0.95787
 Alpha virt. eigenvalues --    0.97198   0.97573   0.97918   0.98381   0.98561
 Alpha virt. eigenvalues --    1.00185   1.00424   1.01439   1.02007   1.02533
 Alpha virt. eigenvalues --    1.02896   1.04092   1.06442   1.07135   1.07688
 Alpha virt. eigenvalues --    1.08764   1.09587   1.09812   1.10829   1.13783
 Alpha virt. eigenvalues --    1.15156   1.15711   1.16624   1.18443   1.18792
 Alpha virt. eigenvalues --    1.19462   1.19481   1.23793   1.24059   1.24267
 Alpha virt. eigenvalues --    1.24614   1.26148   1.26355   1.26853   1.28839
 Alpha virt. eigenvalues --    1.28933   1.29569   1.31397   1.33526   1.33901
 Alpha virt. eigenvalues --    1.35992   1.36133   1.36257   1.38578   1.39869
 Alpha virt. eigenvalues --    1.41556   1.42222   1.42583   1.42667   1.45146
 Alpha virt. eigenvalues --    1.45185   1.45643   1.46153   1.47711   1.48321
 Alpha virt. eigenvalues --    1.49502   1.50068   1.50316   1.50336   1.50787
 Alpha virt. eigenvalues --    1.50825   1.52452   1.52867   1.56946   1.57231
 Alpha virt. eigenvalues --    1.58605   1.61554   1.64853   1.65255   1.65781
 Alpha virt. eigenvalues --    1.70160   1.72282   1.72836   1.76917   1.77497
 Alpha virt. eigenvalues --    1.78277   1.79898   1.79927   1.82274   1.83178
 Alpha virt. eigenvalues --    1.85648   1.86615   1.87055   1.87686   1.87993
 Alpha virt. eigenvalues --    1.88627   1.89902   1.91537   1.91760   1.93784
 Alpha virt. eigenvalues --    1.95339   1.95433   1.96803   1.97222   1.98157
 Alpha virt. eigenvalues --    1.98453   1.98500   1.98555   1.99456   1.99929
 Alpha virt. eigenvalues --    2.00222   2.01442   2.02985   2.03750   2.06310
 Alpha virt. eigenvalues --    2.07059   2.07083   2.08423   2.09988   2.12528
 Alpha virt. eigenvalues --    2.12802   2.14242   2.15170   2.15448   2.16269
 Alpha virt. eigenvalues --    2.16555   2.16809   2.19287   2.19906   2.20422
 Alpha virt. eigenvalues --    2.21187   2.21315   2.21703   2.23051   2.24216
 Alpha virt. eigenvalues --    2.24883   2.25903   2.27112   2.27784   2.28012
 Alpha virt. eigenvalues --    2.28225   2.28323   2.28377   2.29232   2.32756
 Alpha virt. eigenvalues --    2.34354   2.38852   2.39432   2.40552   2.40641
 Alpha virt. eigenvalues --    2.42620   2.44223   2.44491   2.45967   2.47020
 Alpha virt. eigenvalues --    2.51678   2.52474   2.57581   2.58699   2.59026
 Alpha virt. eigenvalues --    2.59211   2.60473   2.61491   2.61695   2.64660
 Alpha virt. eigenvalues --    2.64998   2.66511   2.67939   2.69177   2.69352
 Alpha virt. eigenvalues --    2.69717   2.70656   2.72787   2.75234   2.75508
 Alpha virt. eigenvalues --    2.75905   2.76441   2.78077   2.78881   2.80254
 Alpha virt. eigenvalues --    2.83336   2.85503   2.87865   2.88959   2.92703
 Alpha virt. eigenvalues --    2.93532   2.96813   2.98577   3.00084   3.00931
 Alpha virt. eigenvalues --    3.06323   3.06948   3.15706   3.19487   3.20223
 Alpha virt. eigenvalues --    3.30553   3.39159   3.47170   3.47663   3.52105
 Alpha virt. eigenvalues --    3.53696   3.56628   5.55470   5.56889   5.57411
 Alpha virt. eigenvalues --    5.59909   5.61248   5.61254   5.63028  45.70530
 Alpha virt. eigenvalues --   45.84808  45.92092  63.01382
  Beta  occ. eigenvalues --  -14.45158 -14.45158 -14.44986 -14.44986 -10.27790
  Beta  occ. eigenvalues --  -10.27790 -10.27404 -10.27404 -10.27323 -10.27322
  Beta  occ. eigenvalues --  -10.27147 -10.27146 -10.26456 -10.26456 -10.23513
  Beta  occ. eigenvalues --  -10.23513 -10.23477 -10.23477 -10.23011 -10.23011
  Beta  occ. eigenvalues --  -10.22902 -10.22902 -10.22345 -10.22341 -10.22090
  Beta  occ. eigenvalues --  -10.21640  -3.85482  -2.36635  -2.36257  -2.33817
  Beta  occ. eigenvalues --   -1.05670  -1.05583  -0.97339  -0.96933  -0.88162
  Beta  occ. eigenvalues --   -0.87661  -0.85786  -0.80613  -0.78961  -0.77709
  Beta  occ. eigenvalues --   -0.77693  -0.75398  -0.74715  -0.73400  -0.72468
  Beta  occ. eigenvalues --   -0.66972  -0.65497  -0.64166  -0.64125  -0.62721
  Beta  occ. eigenvalues --   -0.61398  -0.58932  -0.57748  -0.56719  -0.54024
  Beta  occ. eigenvalues --   -0.53153  -0.52326  -0.49404  -0.49334  -0.49104
  Beta  occ. eigenvalues --   -0.49101  -0.48378  -0.47131  -0.46678  -0.45991
  Beta  occ. eigenvalues --   -0.45769  -0.45310  -0.44865  -0.44721  -0.44030
  Beta  occ. eigenvalues --   -0.42888  -0.41893  -0.41229  -0.38774  -0.38619
  Beta  occ. eigenvalues --   -0.38357  -0.37333  -0.37069  -0.36685  -0.36667
  Beta  occ. eigenvalues --   -0.35743  -0.35189  -0.34006  -0.33441  -0.31740
  Beta  occ. eigenvalues --   -0.29627  -0.27102  -0.26561  -0.25876  -0.24800
  Beta  occ. eigenvalues --   -0.23802  -0.23199  -0.21889  -0.20528  -0.19580
  Beta  occ. eigenvalues --   -0.19479
  Beta virt. eigenvalues --   -0.04536  -0.03863  -0.00681  -0.00311  -0.00074
  Beta virt. eigenvalues --    0.01345   0.01784   0.02487   0.03590   0.05445
  Beta virt. eigenvalues --    0.05799   0.05961   0.07892   0.08910   0.09340
  Beta virt. eigenvalues --    0.10268   0.10833   0.12723   0.13092   0.14051
  Beta virt. eigenvalues --    0.14210   0.15348   0.15387   0.16039   0.16053
  Beta virt. eigenvalues --    0.16663   0.16728   0.16993   0.17747   0.18037
  Beta virt. eigenvalues --    0.18516   0.18920   0.19641   0.19926   0.20183
  Beta virt. eigenvalues --    0.21766   0.21989   0.22186   0.22819   0.22915
  Beta virt. eigenvalues --    0.24073   0.25806   0.26135   0.26512   0.27059
  Beta virt. eigenvalues --    0.27834   0.28323   0.29116   0.29187   0.30872
  Beta virt. eigenvalues --    0.31194   0.31452   0.33146   0.33189   0.34495
  Beta virt. eigenvalues --    0.34786   0.36408   0.37661   0.38057   0.39481
  Beta virt. eigenvalues --    0.39613   0.41353   0.42631   0.44327   0.44788
  Beta virt. eigenvalues --    0.46071   0.47138   0.47929   0.49545   0.51527
  Beta virt. eigenvalues --    0.51755   0.52158   0.53873   0.54121   0.56204
  Beta virt. eigenvalues --    0.56262   0.56525   0.57109   0.57163   0.58105
  Beta virt. eigenvalues --    0.58578   0.58770   0.59017   0.59565   0.60354
  Beta virt. eigenvalues --    0.61601   0.61645   0.61707   0.63164   0.63300
  Beta virt. eigenvalues --    0.63337   0.63574   0.63688   0.63750   0.64219
  Beta virt. eigenvalues --    0.64546   0.65091   0.65719   0.66143   0.66459
  Beta virt. eigenvalues --    0.67401   0.67669   0.68454   0.68674   0.69309
  Beta virt. eigenvalues --    0.70978   0.72290   0.72504   0.73707   0.75102
  Beta virt. eigenvalues --    0.75515   0.76459   0.77320   0.78409   0.79547
  Beta virt. eigenvalues --    0.80283   0.81282   0.81739   0.82639   0.83132
  Beta virt. eigenvalues --    0.84198   0.84436   0.84723   0.85275   0.86681
  Beta virt. eigenvalues --    0.86915   0.87094   0.87708   0.87983   0.89790
  Beta virt. eigenvalues --    0.89914   0.90540   0.91396   0.91811   0.91953
  Beta virt. eigenvalues --    0.93061   0.93518   0.93621   0.95484   0.95604
  Beta virt. eigenvalues --    0.96246   0.96342   0.97198   0.97948   0.97968
  Beta virt. eigenvalues --    0.98447   0.98554   1.00185   1.00513   1.01476
  Beta virt. eigenvalues --    1.02062   1.02562   1.02938   1.04175   1.06542
  Beta virt. eigenvalues --    1.07174   1.08833   1.09168   1.09816   1.11184
  Beta virt. eigenvalues --    1.13845   1.15255   1.15757   1.16642   1.16653
  Beta virt. eigenvalues --    1.18466   1.18823   1.19514   1.19579   1.23932
  Beta virt. eigenvalues --    1.24145   1.24483   1.24670   1.26508   1.26746
  Beta virt. eigenvalues --    1.26842   1.29022   1.29112   1.29721   1.31370
  Beta virt. eigenvalues --    1.33900   1.34199   1.36256   1.36402   1.36416
  Beta virt. eigenvalues --    1.38723   1.40104   1.41801   1.42624   1.42759
  Beta virt. eigenvalues --    1.43093   1.45063   1.45284   1.45802   1.46342
  Beta virt. eigenvalues --    1.47960   1.48431   1.49692   1.50089   1.50426
  Beta virt. eigenvalues --    1.50437   1.50980   1.51085   1.52933   1.54098
  Beta virt. eigenvalues --    1.57130   1.57198   1.59459   1.61706   1.64941
  Beta virt. eigenvalues --    1.66030   1.66032   1.70210   1.72702   1.72982
  Beta virt. eigenvalues --    1.77160   1.77455   1.78558   1.79784   1.80098
  Beta virt. eigenvalues --    1.82359   1.83266   1.85760   1.86710   1.87144
  Beta virt. eigenvalues --    1.87741   1.87914   1.88474   1.90110   1.91554
  Beta virt. eigenvalues --    1.91818   1.93813   1.95359   1.95477   1.96859
  Beta virt. eigenvalues --    1.97275   1.98306   1.98476   1.98527   1.98572
  Beta virt. eigenvalues --    1.99587   2.00165   2.00277   2.01453   2.03026
  Beta virt. eigenvalues --    2.03813   2.06470   2.07201   2.07338   2.08649
  Beta virt. eigenvalues --    2.09933   2.12689   2.12738   2.14591   2.15239
  Beta virt. eigenvalues --    2.15478   2.16342   2.16701   2.16830   2.19388
  Beta virt. eigenvalues --    2.20159   2.20544   2.21290   2.21381   2.21787
  Beta virt. eigenvalues --    2.23326   2.24596   2.25055   2.26126   2.27374
  Beta virt. eigenvalues --    2.27960   2.28142   2.28197   2.28461   2.28475
  Beta virt. eigenvalues --    2.29424   2.32923   2.34714   2.39005   2.39690
  Beta virt. eigenvalues --    2.40683   2.40906   2.44591   2.44633   2.46318
  Beta virt. eigenvalues --    2.47066   2.48624   2.51731   2.52535   2.57768
  Beta virt. eigenvalues --    2.58770   2.59101   2.59288   2.60663   2.61774
  Beta virt. eigenvalues --    2.61788   2.64854   2.65221   2.66608   2.68349
  Beta virt. eigenvalues --    2.69186   2.69628   2.69803   2.72653   2.73226
  Beta virt. eigenvalues --    2.75465   2.75631   2.76017   2.77398   2.78419
  Beta virt. eigenvalues --    2.79280   2.80363   2.83545   2.85810   2.88131
  Beta virt. eigenvalues --    2.89088   2.93560   2.93727   2.97138   2.98483
  Beta virt. eigenvalues --    3.00610   3.00918   3.06493   3.07136   3.15759
  Beta virt. eigenvalues --    3.19720   3.20400   3.30337   3.39195   3.47682
  Beta virt. eigenvalues --    3.47869   3.52263   3.53578   3.59576   5.61741
  Beta virt. eigenvalues --    5.63691   5.63901   5.64160   5.65699   5.68251
  Beta virt. eigenvalues --    5.69672  45.81224  45.93765  46.00168  63.08135
          Condensed to atoms (all electrons):
               1          2          3          4          5          6
     1  C    5.217812   0.497462  -0.060713  -0.059306  -0.060715   0.497470
     2  C    0.497462   4.567763   0.525171  -0.015977  -0.039696  -0.018133
     3  C   -0.060713   0.525171   5.046658   0.528898  -0.028346  -0.039697
     4  C   -0.059306  -0.015977   0.528898   4.908741   0.528893  -0.015977
     5  C   -0.060715  -0.039696  -0.028346   0.528893   5.046670   0.525173
     6  C    0.497470  -0.018133  -0.039697  -0.015977   0.525173   4.567747
     7  H    0.006524  -0.039888   0.344623  -0.038616   0.003778   0.000771
     8  H    0.001536   0.002774  -0.036127   0.366097  -0.036127   0.002774
     9  H    0.006524   0.000771   0.003778  -0.038616   0.344623  -0.039887
    10  C    0.006081  -0.000027   0.000002   0.000129  -0.005230  -0.047079
    11  C    0.009398   0.002083  -0.000043   0.000048   0.002504  -0.066332
    12  C   -0.000705   0.000001  -0.000000   0.000001   0.000100   0.007742
    13  C    0.000178   0.000000  -0.000001   0.000058   0.002023  -0.004592
    14  C    0.000002  -0.000000   0.000000  -0.000000   0.000002  -0.000039
    15  C    0.000002  -0.000000   0.000000  -0.000001   0.000073   0.000076
    16  H   -0.000027   0.000000   0.000001   0.000110   0.000070   0.000873
    17  C   -0.000000   0.000000   0.000000   0.000000  -0.000000  -0.000000
    18  H   -0.000000   0.000000   0.000000   0.000000  -0.000000   0.000003
    19  H   -0.000000   0.000000  -0.000000   0.000000   0.000002  -0.000003
    20  H    0.000000  -0.000000   0.000000  -0.000000  -0.000000  -0.000000
    21  C    0.006081  -0.047082  -0.005229   0.000129   0.000002  -0.000027
    22  C    0.009398  -0.066334   0.002504   0.000048  -0.000043   0.002083
    23  C   -0.000705   0.007741   0.000100   0.000001  -0.000000   0.000001
    24  C    0.000177  -0.004592   0.002023   0.000058  -0.000001   0.000000
    25  C    0.000002  -0.000039   0.000002  -0.000000   0.000000  -0.000000
    26  C    0.000002   0.000076   0.000073  -0.000001   0.000000  -0.000000
    27  H   -0.000027   0.000873   0.000070   0.000110   0.000001   0.000000
    28  C   -0.000000  -0.000000  -0.000000   0.000000   0.000000   0.000000
    29  H   -0.000000   0.000003  -0.000000   0.000000   0.000000   0.000000
    30  H   -0.000000  -0.000003   0.000002   0.000000  -0.000000   0.000000
    31  H    0.000000  -0.000000  -0.000000  -0.000000   0.000000  -0.000000
    32  N   -0.040289   0.274908  -0.071256   0.004850   0.000005   0.005839
    33  N    0.001239   0.005970  -0.000172   0.000001   0.000000  -0.000032
    34  N   -0.040290   0.005839   0.000005   0.004850  -0.071257   0.274902
    35  N    0.001239  -0.000032   0.000000   0.000001  -0.000172   0.005970
    36  C   -0.000009   0.000000   0.000000  -0.000000   0.000002  -0.000053
    37  H   -0.000000  -0.000000   0.000000   0.000000  -0.000000   0.000004
    38  H   -0.000000  -0.000000   0.000000   0.000000  -0.000000   0.000004
    39  H   -0.000018   0.000001   0.000000  -0.000000   0.000000  -0.000009
    40  C   -0.000009  -0.000053   0.000002  -0.000000   0.000000   0.000000
    41  H   -0.000000   0.000004  -0.000000   0.000000   0.000000  -0.000000
    42  H   -0.000000   0.000004  -0.000000   0.000000   0.000000  -0.000000
    43  H   -0.000018  -0.000009   0.000000  -0.000000   0.000000   0.000001
    44  Co   0.253941  -0.061670   0.004105   0.003780   0.004104  -0.061669
               7          8          9         10         11         12
     1  C    0.006524   0.001536   0.006524   0.006081   0.009398  -0.000705
     2  C   -0.039888   0.002774   0.000771  -0.000027   0.002083   0.000001
     3  C    0.344623  -0.036127   0.003778   0.000002  -0.000043  -0.000000
     4  C   -0.038616   0.366097  -0.038616   0.000129   0.000048   0.000001
     5  C    0.003778  -0.036127   0.344623  -0.005230   0.002504   0.000100
     6  C    0.000771   0.002774  -0.039887  -0.047079  -0.066332   0.007742
     7  H    0.557808  -0.004259  -0.000092  -0.000000  -0.000000   0.000000
     8  H   -0.004259   0.545863  -0.004259  -0.000003   0.000001  -0.000000
     9  H   -0.000092  -0.004259   0.557806   0.000451  -0.000176  -0.000043
    10  C   -0.000000  -0.000003   0.000451   4.638779  -0.067207   0.512097
    11  C   -0.000000   0.000001  -0.000176  -0.067207   4.826842  -0.057411
    12  C    0.000000  -0.000000  -0.000043   0.512097  -0.057411   4.645940
    13  C   -0.000000   0.000002  -0.000092   0.546358   0.004802  -0.056690
    14  C   -0.000000   0.000000   0.000001  -0.048782   0.005723   0.535817
    15  C   -0.000000   0.000000   0.000114  -0.005529  -0.000071  -0.037998
    16  H    0.000000  -0.000010   0.006278  -0.034347  -0.000159   0.003717
    17  C    0.000000  -0.000000   0.000001  -0.040040  -0.000079  -0.008308
    18  H    0.000000  -0.000000  -0.000000   0.004109  -0.000217  -0.038152
    19  H    0.000000   0.000000  -0.000009   0.001909   0.000003   0.000956
    20  H   -0.000000  -0.000000   0.000000   0.000929   0.000003   0.002397
    21  C    0.000451  -0.000003  -0.000000  -0.000000  -0.000007   0.000000
    22  C   -0.000176   0.000001  -0.000000  -0.000007  -0.012744  -0.000002
    23  C   -0.000043  -0.000000   0.000000   0.000000  -0.000002  -0.000000
    24  C   -0.000093   0.000002  -0.000000   0.000000   0.000000   0.000000
    25  C    0.000001   0.000000  -0.000000  -0.000000   0.000000   0.000000
    26  C    0.000114   0.000000  -0.000000  -0.000000  -0.000000  -0.000000
    27  H    0.006278  -0.000010   0.000000   0.000000   0.000000  -0.000000
    28  C    0.000001  -0.000000   0.000000   0.000000  -0.000000  -0.000000
    29  H   -0.000000  -0.000000   0.000000   0.000000   0.000000  -0.000000
    30  H   -0.000009   0.000000   0.000000   0.000000   0.000000   0.000000
    31  H    0.000000  -0.000000  -0.000000   0.000000   0.000000   0.000000
    32  N   -0.004047  -0.000104   0.000007   0.000000   0.000228   0.000000
    33  N    0.000002  -0.000000  -0.000000   0.000000   0.000019   0.000000
    34  N    0.000007  -0.000104  -0.004047   0.256105   0.339540  -0.038178
    35  N   -0.000000  -0.000000   0.000002  -0.046733   0.306438   0.273689
    36  C   -0.000000   0.000000  -0.000000   0.005733  -0.043168  -0.047838
    37  H    0.000000  -0.000000   0.000000  -0.000140   0.000747  -0.001121
    38  H    0.000000  -0.000000   0.000000  -0.000140   0.000743  -0.001118
    39  H    0.000000   0.000000   0.000000   0.000022  -0.000451   0.002540
    40  C   -0.000000   0.000000  -0.000000   0.000000   0.000014   0.000000
    41  H    0.000000  -0.000000   0.000000  -0.000000  -0.000000  -0.000000
    42  H    0.000000  -0.000000   0.000000  -0.000000  -0.000000  -0.000000
    43  H    0.000000   0.000000   0.000000  -0.000000  -0.000001  -0.000000
    44  Co  -0.000728   0.000110  -0.000728   0.008367   0.387390   0.004506
              13         14         15         16         17         18
     1  C    0.000178   0.000002   0.000002  -0.000027  -0.000000  -0.000000
     2  C    0.000000  -0.000000  -0.000000   0.000000   0.000000   0.000000
     3  C   -0.000001   0.000000   0.000000   0.000001   0.000000   0.000000
     4  C    0.000058  -0.000000  -0.000001   0.000110   0.000000   0.000000
     5  C    0.002023   0.000002   0.000073   0.000070  -0.000000  -0.000000
     6  C   -0.004592  -0.000039   0.000076   0.000873  -0.000000   0.000003
     7  H   -0.000000  -0.000000  -0.000000   0.000000   0.000000   0.000000
     8  H    0.000002   0.000000   0.000000  -0.000010  -0.000000  -0.000000
     9  H   -0.000092   0.000001   0.000114   0.006278   0.000001  -0.000000
    10  C    0.546358  -0.048782  -0.005529  -0.034347  -0.040040   0.004109
    11  C    0.004802   0.005723  -0.000071  -0.000159  -0.000079  -0.000217
    12  C   -0.056690   0.535817  -0.037998   0.003717  -0.008308  -0.038152
    13  C    5.027726  -0.044379   0.504196   0.355216  -0.037260   0.000301
    14  C   -0.044379   5.039361  -0.037072   0.000446   0.514036   0.362225
    15  C    0.504196  -0.037072   4.899099  -0.035071   0.562116   0.003804
    16  H    0.355216   0.000446  -0.035071   0.516655   0.003670   0.000014
    17  C   -0.037260   0.514036   0.562116   0.003670   4.886021  -0.035089
    18  H    0.000301   0.362225   0.003804   0.000014  -0.035089   0.536512
    19  H   -0.036059   0.003880   0.368884  -0.003890  -0.035617  -0.000141
    20  H    0.004125  -0.037501  -0.036843  -0.000150   0.368479  -0.004251
    21  C    0.000000  -0.000000  -0.000000   0.000000   0.000000   0.000000
    22  C    0.000000   0.000000  -0.000000   0.000000  -0.000000   0.000000
    23  C    0.000000   0.000000  -0.000000  -0.000000  -0.000000  -0.000000
    24  C    0.000000  -0.000000  -0.000000   0.000000   0.000000   0.000000
    25  C   -0.000000  -0.000000   0.000000  -0.000000  -0.000000   0.000000
    26  C   -0.000000   0.000000  -0.000000  -0.000000   0.000000   0.000000
    27  H    0.000000  -0.000000  -0.000000   0.000000   0.000000  -0.000000
    28  C    0.000000  -0.000000   0.000000   0.000000   0.000000   0.000000
    29  H    0.000000   0.000000   0.000000  -0.000000   0.000000  -0.000000
    30  H   -0.000000  -0.000000   0.000000  -0.000000   0.000000   0.000000
    31  H   -0.000000   0.000000   0.000000  -0.000000   0.000000   0.000000
    32  N   -0.000000  -0.000000   0.000000   0.000000   0.000000  -0.000000
    33  N    0.000000  -0.000000   0.000000   0.000000   0.000000  -0.000000
    34  N   -0.079216   0.009284   0.005305  -0.005293  -0.000145  -0.000100
    35  N    0.009263  -0.085665  -0.000149  -0.000094   0.005539  -0.007584
    36  C   -0.000112  -0.003163   0.000009   0.000003  -0.000112   0.004358
    37  H   -0.000009   0.002745  -0.000002  -0.000000  -0.000008   0.000513
    38  H   -0.000009   0.002743  -0.000002  -0.000000  -0.000008   0.000512
    39  H    0.000005   0.000012  -0.000000  -0.000000   0.000001  -0.000032
    40  C    0.000000   0.000000  -0.000000   0.000000   0.000000  -0.000000
    41  H    0.000000   0.000000  -0.000000   0.000000  -0.000000  -0.000000
    42  H    0.000000   0.000000  -0.000000   0.000000  -0.000000  -0.000000
    43  H   -0.000000   0.000000  -0.000000   0.000000  -0.000000   0.000000
    44  Co  -0.000511  -0.000527  -0.000020   0.000053   0.000016   0.000026
              19         20         21         22         23         24
     1  C   -0.000000   0.000000   0.006081   0.009398  -0.000705   0.000177
     2  C    0.000000  -0.000000  -0.047082  -0.066334   0.007741  -0.004592
     3  C   -0.000000   0.000000  -0.005229   0.002504   0.000100   0.002023
     4  C    0.000000  -0.000000   0.000129   0.000048   0.000001   0.000058
     5  C    0.000002  -0.000000   0.000002  -0.000043  -0.000000  -0.000001
     6  C   -0.000003  -0.000000  -0.000027   0.002083   0.000001   0.000000
     7  H    0.000000  -0.000000   0.000451  -0.000176  -0.000043  -0.000093
     8  H    0.000000  -0.000000  -0.000003   0.000001  -0.000000   0.000002
     9  H   -0.000009   0.000000  -0.000000  -0.000000   0.000000  -0.000000
    10  C    0.001909   0.000929  -0.000000  -0.000007   0.000000   0.000000
    11  C    0.000003   0.000003  -0.000007  -0.012744  -0.000002   0.000000
    12  C    0.000956   0.002397   0.000000  -0.000002  -0.000000   0.000000
    13  C   -0.036059   0.004125   0.000000   0.000000   0.000000   0.000000
    14  C    0.003880  -0.037501  -0.000000   0.000000   0.000000  -0.000000
    15  C    0.368884  -0.036843  -0.000000  -0.000000  -0.000000  -0.000000
    16  H   -0.003890  -0.000150   0.000000   0.000000  -0.000000   0.000000
    17  C   -0.035617   0.368479   0.000000  -0.000000  -0.000000   0.000000
    18  H   -0.000141  -0.004251   0.000000   0.000000  -0.000000   0.000000
    19  H    0.533903  -0.004702   0.000000   0.000000   0.000000  -0.000000
    20  H   -0.004702   0.539684   0.000000   0.000000   0.000000  -0.000000
    21  C    0.000000   0.000000   4.638817  -0.067208   0.512095   0.546354
    22  C    0.000000   0.000000  -0.067208   4.826854  -0.057408   0.004801
    23  C    0.000000   0.000000   0.512095  -0.057408   4.645906  -0.056686
    24  C   -0.000000  -0.000000   0.546354   0.004801  -0.056686   5.027705
    25  C   -0.000000   0.000000  -0.048784   0.005723   0.535823  -0.044378
    26  C    0.000000   0.000000  -0.005532  -0.000071  -0.037998   0.504202
    27  H   -0.000000  -0.000000  -0.034348  -0.000159   0.003717   0.355218
    28  C    0.000000   0.000000  -0.040040  -0.000079  -0.008306  -0.037261
    29  H    0.000000   0.000000   0.004109  -0.000217  -0.038151   0.000301
    30  H    0.000000   0.000000   0.001910   0.000003   0.000956  -0.036061
    31  H    0.000000   0.000000   0.000929   0.000003   0.002397   0.004125
    32  N    0.000000   0.000000   0.256108   0.339532  -0.038180  -0.079211
    33  N   -0.000000  -0.000000  -0.046732   0.306434   0.273688   0.009262
    34  N   -0.000097   0.000003   0.000000   0.000228   0.000000  -0.000000
    35  N    0.000004  -0.000105   0.000000   0.000019   0.000000   0.000000
    36  C   -0.000000  -0.000002   0.000000   0.000014   0.000000   0.000000
    37  H   -0.000000   0.000000  -0.000000  -0.000000  -0.000000   0.000000
    38  H   -0.000000   0.000000  -0.000000  -0.000000  -0.000000   0.000000
    39  H   -0.000000  -0.000000  -0.000000  -0.000001  -0.000000  -0.000000
    40  C    0.000000  -0.000000   0.005733  -0.043168  -0.047838  -0.000112
    41  H   -0.000000   0.000000  -0.000140   0.000743  -0.001118  -0.000009
    42  H   -0.000000   0.000000  -0.000140   0.000747  -0.001122  -0.000009
    43  H    0.000000   0.000000   0.000022  -0.000451   0.002540   0.000005
    44  Co   0.000015  -0.000004   0.008367   0.387394   0.004506  -0.000511
              25         26         27         28         29         30
     1  C    0.000002   0.000002  -0.000027  -0.000000  -0.000000  -0.000000
     2  C   -0.000039   0.000076   0.000873  -0.000000   0.000003  -0.000003
     3  C    0.000002   0.000073   0.000070  -0.000000  -0.000000   0.000002
     4  C   -0.000000  -0.000001   0.000110   0.000000   0.000000   0.000000
     5  C    0.000000   0.000000   0.000001   0.000000   0.000000  -0.000000
     6  C   -0.000000  -0.000000   0.000000   0.000000   0.000000   0.000000
     7  H    0.000001   0.000114   0.006278   0.000001  -0.000000  -0.000009
     8  H    0.000000   0.000000  -0.000010  -0.000000  -0.000000   0.000000
     9  H   -0.000000  -0.000000   0.000000   0.000000   0.000000   0.000000
    10  C   -0.000000  -0.000000   0.000000   0.000000   0.000000   0.000000
    11  C    0.000000  -0.000000   0.000000  -0.000000   0.000000   0.000000
    12  C    0.000000  -0.000000  -0.000000  -0.000000  -0.000000   0.000000
    13  C   -0.000000  -0.000000   0.000000   0.000000   0.000000  -0.000000
    14  C   -0.000000   0.000000  -0.000000  -0.000000   0.000000  -0.000000
    15  C    0.000000  -0.000000  -0.000000   0.000000   0.000000   0.000000
    16  H   -0.000000  -0.000000   0.000000   0.000000  -0.000000  -0.000000
    17  C   -0.000000   0.000000   0.000000   0.000000   0.000000   0.000000
    18  H    0.000000   0.000000  -0.000000   0.000000  -0.000000   0.000000
    19  H   -0.000000   0.000000  -0.000000   0.000000   0.000000   0.000000
    20  H    0.000000   0.000000  -0.000000   0.000000   0.000000   0.000000
    21  C   -0.048784  -0.005532  -0.034348  -0.040040   0.004109   0.001910
    22  C    0.005723  -0.000071  -0.000159  -0.000079  -0.000217   0.000003
    23  C    0.535823  -0.037998   0.003717  -0.008306  -0.038151   0.000956
    24  C   -0.044378   0.504202   0.355218  -0.037261   0.000301  -0.036061
    25  C    5.039383  -0.037071   0.000446   0.514026   0.362224   0.003880
    26  C   -0.037071   4.899092  -0.035071   0.562118   0.003804   0.368883
    27  H    0.000446  -0.035071   0.516656   0.003670   0.000014  -0.003890
    28  C    0.514026   0.562118   0.003670   4.886026  -0.035089  -0.035617
    29  H    0.362224   0.003804   0.000014  -0.035089   0.536511  -0.000141
    30  H    0.003880   0.368883  -0.003890  -0.035617  -0.000141   0.533908
    31  H   -0.037501  -0.036843  -0.000150   0.368480  -0.004250  -0.004702
    32  N    0.009285   0.005305  -0.005293  -0.000145  -0.000100  -0.000097
    33  N   -0.085669  -0.000149  -0.000094   0.005539  -0.007584   0.000004
    34  N   -0.000000   0.000000   0.000000   0.000000  -0.000000   0.000000
    35  N   -0.000000   0.000000   0.000000   0.000000  -0.000000  -0.000000
    36  C    0.000000  -0.000000   0.000000   0.000000  -0.000000   0.000000
    37  H    0.000000  -0.000000   0.000000  -0.000000  -0.000000  -0.000000
    38  H    0.000000  -0.000000   0.000000  -0.000000  -0.000000  -0.000000
    39  H    0.000000  -0.000000   0.000000  -0.000000   0.000000   0.000000
    40  C   -0.003163   0.000009   0.000003  -0.000112   0.004358  -0.000000
    41  H    0.002743  -0.000002  -0.000000  -0.000008   0.000512  -0.000000
    42  H    0.002745  -0.000002  -0.000000  -0.000008   0.000513  -0.000000
    43  H    0.000012  -0.000000  -0.000000   0.000001  -0.000032  -0.000000
    44  Co  -0.000527  -0.000020   0.000053   0.000016   0.000026   0.000015
              31         32         33         34         35         36
     1  C    0.000000  -0.040289   0.001239  -0.040290   0.001239  -0.000009
     2  C   -0.000000   0.274908   0.005970   0.005839  -0.000032   0.000000
     3  C   -0.000000  -0.071256  -0.000172   0.000005   0.000000   0.000000
     4  C   -0.000000   0.004850   0.000001   0.004850   0.000001  -0.000000
     5  C    0.000000   0.000005   0.000000  -0.071257  -0.000172   0.000002
     6  C   -0.000000   0.005839  -0.000032   0.274902   0.005970  -0.000053
     7  H    0.000000  -0.004047   0.000002   0.000007  -0.000000  -0.000000
     8  H   -0.000000  -0.000104  -0.000000  -0.000104  -0.000000   0.000000
     9  H   -0.000000   0.000007  -0.000000  -0.004047   0.000002  -0.000000
    10  C    0.000000   0.000000   0.000000   0.256105  -0.046733   0.005733
    11  C    0.000000   0.000228   0.000019   0.339540   0.306438  -0.043168
    12  C    0.000000   0.000000   0.000000  -0.038178   0.273689  -0.047838
    13  C   -0.000000  -0.000000   0.000000  -0.079216   0.009263  -0.000112
    14  C    0.000000  -0.000000  -0.000000   0.009284  -0.085665  -0.003163
    15  C    0.000000   0.000000   0.000000   0.005305  -0.000149   0.000009
    16  H   -0.000000   0.000000   0.000000  -0.005293  -0.000094   0.000003
    17  C    0.000000   0.000000   0.000000  -0.000145   0.005539  -0.000112
    18  H    0.000000  -0.000000  -0.000000  -0.000100  -0.007584   0.004358
    19  H    0.000000   0.000000  -0.000000  -0.000097   0.000004  -0.000000
    20  H    0.000000   0.000000  -0.000000   0.000003  -0.000105  -0.000002
    21  C    0.000929   0.256108  -0.046732   0.000000   0.000000   0.000000
    22  C    0.000003   0.339532   0.306434   0.000228   0.000019   0.000014
    23  C    0.002397  -0.038180   0.273688   0.000000   0.000000   0.000000
    24  C    0.004125  -0.079211   0.009262  -0.000000   0.000000   0.000000
    25  C   -0.037501   0.009285  -0.085669  -0.000000  -0.000000   0.000000
    26  C   -0.036843   0.005305  -0.000149   0.000000   0.000000  -0.000000
    27  H   -0.000150  -0.005293  -0.000094   0.000000   0.000000   0.000000
    28  C    0.368480  -0.000145   0.005539   0.000000   0.000000   0.000000
    29  H   -0.004250  -0.000100  -0.007584  -0.000000  -0.000000  -0.000000
    30  H   -0.004702  -0.000097   0.000004   0.000000  -0.000000   0.000000
    31  H    0.539682   0.000003  -0.000105   0.000000  -0.000000  -0.000000
    32  N    0.000003   7.198246  -0.055381  -0.000047   0.000000  -0.000000
    33  N   -0.000105  -0.055381   7.049185   0.000000  -0.000000  -0.000000
    34  N    0.000000  -0.000047   0.000000   7.198268  -0.055383   0.004418
    35  N   -0.000000   0.000000  -0.000000  -0.055383   7.049170   0.301384
    36  C   -0.000000  -0.000000  -0.000000   0.004418   0.301384   5.052438
    37  H    0.000000   0.000000   0.000000  -0.000069  -0.042614   0.377549
    38  H    0.000000   0.000000   0.000000  -0.000069  -0.042619   0.377554
    39  H    0.000000  -0.000000   0.000000   0.000149  -0.031852   0.376818
    40  C   -0.000002   0.004418   0.301385  -0.000000  -0.000000   0.000000
    41  H    0.000000  -0.000069  -0.042619   0.000000   0.000000  -0.000000
    42  H    0.000000  -0.000069  -0.042615   0.000000   0.000000  -0.000000
    43  H   -0.000000   0.000149  -0.031852  -0.000000   0.000000  -0.000001
    44  Co  -0.000004  -0.077481  -0.054570  -0.077483  -0.054570  -0.003679
              37         38         39         40         41         42
     1  C   -0.000000  -0.000000  -0.000018  -0.000009  -0.000000  -0.000000
     2  C   -0.000000  -0.000000   0.000001  -0.000053   0.000004   0.000004
     3  C    0.000000   0.000000   0.000000   0.000002  -0.000000  -0.000000
     4  C    0.000000   0.000000  -0.000000  -0.000000   0.000000   0.000000
     5  C   -0.000000  -0.000000   0.000000   0.000000   0.000000   0.000000
     6  C    0.000004   0.000004  -0.000009   0.000000  -0.000000  -0.000000
     7  H    0.000000   0.000000   0.000000  -0.000000   0.000000   0.000000
     8  H   -0.000000  -0.000000   0.000000   0.000000  -0.000000  -0.000000
     9  H    0.000000   0.000000   0.000000  -0.000000   0.000000   0.000000
    10  C   -0.000140  -0.000140   0.000022   0.000000  -0.000000  -0.000000
    11  C    0.000747   0.000743  -0.000451   0.000014  -0.000000  -0.000000
    12  C   -0.001121  -0.001118   0.002540   0.000000  -0.000000  -0.000000
    13  C   -0.000009  -0.000009   0.000005   0.000000   0.000000   0.000000
    14  C    0.002745   0.002743   0.000012   0.000000   0.000000   0.000000
    15  C   -0.000002  -0.000002  -0.000000  -0.000000  -0.000000  -0.000000
    16  H   -0.000000  -0.000000  -0.000000   0.000000   0.000000   0.000000
    17  C   -0.000008  -0.000008   0.000001   0.000000  -0.000000  -0.000000
    18  H    0.000513   0.000512  -0.000032  -0.000000  -0.000000  -0.000000
    19  H   -0.000000  -0.000000  -0.000000   0.000000  -0.000000  -0.000000
    20  H    0.000000   0.000000  -0.000000  -0.000000   0.000000   0.000000
    21  C   -0.000000  -0.000000  -0.000000   0.005733  -0.000140  -0.000140
    22  C   -0.000000  -0.000000  -0.000001  -0.043168   0.000743   0.000747
    23  C   -0.000000  -0.000000  -0.000000  -0.047838  -0.001118  -0.001122
    24  C    0.000000   0.000000  -0.000000  -0.000112  -0.000009  -0.000009
    25  C    0.000000   0.000000   0.000000  -0.003163   0.002743   0.002745
    26  C   -0.000000  -0.000000  -0.000000   0.000009  -0.000002  -0.000002
    27  H    0.000000   0.000000   0.000000   0.000003  -0.000000  -0.000000
    28  C   -0.000000  -0.000000  -0.000000  -0.000112  -0.000008  -0.000008
    29  H   -0.000000  -0.000000   0.000000   0.004358   0.000512   0.000513
    30  H   -0.000000  -0.000000   0.000000  -0.000000  -0.000000  -0.000000
    31  H    0.000000   0.000000   0.000000  -0.000002   0.000000   0.000000
    32  N    0.000000   0.000000  -0.000000   0.004418  -0.000069  -0.000069
    33  N    0.000000   0.000000   0.000000   0.301385  -0.042619  -0.042615
    34  N   -0.000069  -0.000069   0.000149  -0.000000   0.000000   0.000000
    35  N   -0.042614  -0.042619  -0.031852  -0.000000   0.000000   0.000000
    36  C    0.377549   0.377554   0.376818   0.000000  -0.000000  -0.000000
    37  H    0.524951  -0.039803  -0.025874  -0.000000  -0.000000   0.000000
    38  H   -0.039803   0.524949  -0.025882  -0.000000   0.000000  -0.000000
    39  H   -0.025874  -0.025882   0.478558  -0.000001   0.000000   0.000000
    40  C   -0.000000  -0.000000  -0.000001   5.052434   0.377554   0.377550
    41  H   -0.000000   0.000000   0.000000   0.377554   0.524951  -0.039804
    42  H    0.000000  -0.000000   0.000000   0.377550  -0.039804   0.524952
    43  H    0.000000   0.000000  -0.000022   0.376819  -0.025883  -0.025874
    44  Co   0.001027   0.001031   0.007744  -0.003679   0.001032   0.001026
              43         44
     1  C   -0.000018   0.253941
     2  C   -0.000009  -0.061670
     3  C    0.000000   0.004105
     4  C   -0.000000   0.003780
     5  C    0.000000   0.004104
     6  C    0.000001  -0.061669
     7  H    0.000000  -0.000728
     8  H    0.000000   0.000110
     9  H    0.000000  -0.000728
    10  C   -0.000000   0.008367
    11  C   -0.000001   0.387390
    12  C   -0.000000   0.004506
    13  C   -0.000000  -0.000511
    14  C    0.000000  -0.000527
    15  C   -0.000000  -0.000020
    16  H    0.000000   0.000053
    17  C   -0.000000   0.000016
    18  H    0.000000   0.000026
    19  H    0.000000   0.000015
    20  H    0.000000  -0.000004
    21  C    0.000022   0.008367
    22  C   -0.000451   0.387394
    23  C    0.002540   0.004506
    24  C    0.000005  -0.000511
    25  C    0.000012  -0.000527
    26  C   -0.000000  -0.000020
    27  H   -0.000000   0.000053
    28  C    0.000001   0.000016
    29  H   -0.000032   0.000026
    30  H   -0.000000   0.000015
    31  H   -0.000000  -0.000004
    32  N    0.000149  -0.077481
    33  N   -0.031852  -0.054570
    34  N   -0.000000  -0.077483
    35  N    0.000000  -0.054570
    36  C   -0.000001  -0.003679
    37  H    0.000000   0.001027
    38  H    0.000000   0.001031
    39  H   -0.000022   0.007744
    40  C    0.376819  -0.003679
    41  H   -0.025883   0.001032
    42  H   -0.025874   0.001026
    43  H    0.478561   0.007744
    44  Co   0.007744  16.344407
          Atomic-Atomic Spin Densities.
               1          2          3          4          5          6
     1  C   -0.390281  -0.005004   0.006106   0.009389   0.006106  -0.005003
     2  C   -0.005004   0.089194   0.002715  -0.002641   0.001252   0.001150
     3  C    0.006106   0.002715  -0.077154  -0.005134   0.000058   0.001252
     4  C    0.009389  -0.002641  -0.005134   0.087616  -0.005135  -0.002641
     5  C    0.006106   0.001252   0.000058  -0.005135  -0.077153   0.002715
     6  C   -0.005003   0.001150   0.001252  -0.002641   0.002715   0.089185
     7  H   -0.001122   0.000640   0.004907   0.002069  -0.000044  -0.000094
     8  H   -0.000199   0.000004  -0.000043   0.000642  -0.000043   0.000004
     9  H   -0.001122  -0.000094  -0.000044   0.002069   0.004907   0.000640
    10  C   -0.000337  -0.000018   0.000001   0.000019   0.000418   0.000116
    11  C    0.006084  -0.000839   0.000006   0.000026  -0.000194  -0.006562
    12  C    0.000080   0.000000   0.000000  -0.000000  -0.000009   0.000011
    13  C    0.000015   0.000000  -0.000000   0.000002  -0.000305  -0.000402
    14  C    0.000000   0.000000  -0.000000  -0.000000  -0.000001  -0.000020
    15  C   -0.000000   0.000000   0.000000  -0.000000   0.000002   0.000007
    16  H   -0.000002  -0.000000  -0.000000   0.000003   0.000091   0.000066
    17  C   -0.000000  -0.000000   0.000000  -0.000000   0.000000   0.000002
    18  H    0.000000  -0.000000   0.000000   0.000000   0.000000   0.000000
    19  H    0.000000   0.000000  -0.000000   0.000000   0.000000   0.000000
    20  H   -0.000000   0.000000  -0.000000  -0.000000  -0.000000  -0.000000
    21  C   -0.000337   0.000116   0.000418   0.000019   0.000001  -0.000018
    22  C    0.006084  -0.006563  -0.000194   0.000026   0.000006  -0.000840
    23  C    0.000080   0.000011  -0.000009  -0.000000   0.000000   0.000000
    24  C    0.000015  -0.000402  -0.000305   0.000002  -0.000000   0.000000
    25  C    0.000000  -0.000020  -0.000001  -0.000000  -0.000000   0.000000
    26  C   -0.000000   0.000007   0.000002  -0.000000   0.000000   0.000000
    27  H   -0.000002   0.000066   0.000091   0.000003  -0.000000  -0.000000
    28  C   -0.000000   0.000002   0.000000  -0.000000   0.000000  -0.000000
    29  H    0.000000   0.000000   0.000000   0.000000   0.000000  -0.000000
    30  H    0.000000   0.000000   0.000000   0.000000  -0.000000   0.000000
    31  H   -0.000000  -0.000000  -0.000000  -0.000000  -0.000000   0.000000
    32  N    0.002174   0.011792   0.004752   0.000123   0.000044  -0.000139
    33  N   -0.000662   0.000412  -0.000016  -0.000000  -0.000000   0.000003
    34  N    0.002175  -0.000139   0.000044   0.000123   0.004753   0.011791
    35  N   -0.000662   0.000003  -0.000000  -0.000000  -0.000016   0.000412
    36  C   -0.000019   0.000000  -0.000000  -0.000000  -0.000000  -0.000004
    37  H    0.000000  -0.000000   0.000000   0.000000   0.000000  -0.000001
    38  H    0.000000  -0.000000   0.000000   0.000000   0.000000  -0.000001
    39  H    0.000013  -0.000000   0.000000   0.000000   0.000000  -0.000000
    40  C   -0.000019  -0.000004  -0.000000  -0.000000  -0.000000   0.000000
    41  H    0.000000  -0.000001   0.000000   0.000000   0.000000  -0.000000
    42  H    0.000000  -0.000001   0.000000   0.000000   0.000000  -0.000000
    43  H    0.000013  -0.000000   0.000000   0.000000   0.000000  -0.000000
    44  Co   0.014551  -0.010363  -0.001925   0.000918  -0.001926  -0.010363
               7          8          9         10         11         12
     1  C   -0.001122  -0.000199  -0.001122  -0.000337   0.006084   0.000080
     2  C    0.000640   0.000004  -0.000094  -0.000018  -0.000839   0.000000
     3  C    0.004907  -0.000043  -0.000044   0.000001   0.000006   0.000000
     4  C    0.002069   0.000642   0.002069   0.000019   0.000026  -0.000000
     5  C   -0.000044  -0.000043   0.004907   0.000418  -0.000194  -0.000009
     6  C   -0.000094   0.000004   0.000640   0.000116  -0.006562   0.000011
     7  H   -0.009942  -0.000207  -0.000026  -0.000000   0.000000  -0.000000
     8  H   -0.000207  -0.004415  -0.000207  -0.000000   0.000000   0.000000
     9  H   -0.000026  -0.000207  -0.009942  -0.000149   0.000018   0.000001
    10  C   -0.000000  -0.000000  -0.000149  -0.003247   0.001933  -0.002025
    11  C    0.000000   0.000000   0.000018   0.001933   0.213343  -0.002444
    12  C   -0.000000   0.000000   0.000001  -0.002025  -0.002444  -0.028470
    13  C    0.000000   0.000000   0.000201   0.004672   0.000262   0.000625
    14  C    0.000000   0.000000   0.000001   0.000952   0.000574  -0.000571
    15  C    0.000000   0.000000   0.000006  -0.000842  -0.000028   0.000223
    16  H   -0.000000  -0.000000  -0.000190  -0.000183   0.000000  -0.000007
    17  C   -0.000000  -0.000000  -0.000000   0.000133  -0.000013  -0.000202
    18  H   -0.000000  -0.000000  -0.000000  -0.000011  -0.000003  -0.000088
    19  H   -0.000000  -0.000000  -0.000000   0.000002  -0.000000  -0.000008
    20  H    0.000000   0.000000   0.000000  -0.000004   0.000000   0.000015
    21  C   -0.000149  -0.000000  -0.000000  -0.000000   0.000001  -0.000000
    22  C    0.000018   0.000000   0.000000   0.000001   0.001645   0.000000
    23  C    0.000001   0.000000  -0.000000  -0.000000   0.000000   0.000000
    24  C    0.000201   0.000000   0.000000   0.000000   0.000000   0.000000
    25  C    0.000001   0.000000   0.000000   0.000000   0.000000   0.000000
    26  C    0.000006   0.000000   0.000000  -0.000000  -0.000000   0.000000
    27  H   -0.000190  -0.000000  -0.000000  -0.000000  -0.000000  -0.000000
    28  C   -0.000000  -0.000000  -0.000000  -0.000000  -0.000000   0.000000
    29  H   -0.000000  -0.000000  -0.000000   0.000000   0.000000  -0.000000
    30  H   -0.000000  -0.000000  -0.000000  -0.000000  -0.000000   0.000000
    31  H    0.000000   0.000000   0.000000   0.000000  -0.000000  -0.000000
    32  N   -0.000733  -0.000003  -0.000002  -0.000000  -0.000050  -0.000000
    33  N    0.000003   0.000000   0.000000   0.000000  -0.000003   0.000000
    34  N   -0.000002  -0.000003  -0.000733  -0.001465  -0.031469   0.001581
    35  N    0.000000   0.000000   0.000003  -0.000957  -0.042095   0.009016
    36  C    0.000000   0.000000   0.000000  -0.000032   0.001004   0.000386
    37  H   -0.000000  -0.000000  -0.000000   0.000004   0.000448  -0.000168
    38  H   -0.000000  -0.000000  -0.000000   0.000004   0.000450  -0.000168
    39  H   -0.000000  -0.000000  -0.000000   0.000001  -0.000726  -0.000059
    40  C    0.000000   0.000000   0.000000   0.000000  -0.000000  -0.000000
    41  H   -0.000000  -0.000000  -0.000000   0.000000   0.000000  -0.000000
    42  H   -0.000000  -0.000000  -0.000000   0.000000   0.000000  -0.000000
    43  H   -0.000000  -0.000000  -0.000000  -0.000000   0.000000   0.000000
    44  Co   0.000420   0.000049   0.000420   0.001515   0.059302   0.000051
              13         14         15         16         17         18
     1  C    0.000015   0.000000  -0.000000  -0.000002  -0.000000   0.000000
     2  C    0.000000   0.000000   0.000000  -0.000000  -0.000000  -0.000000
     3  C   -0.000000  -0.000000   0.000000  -0.000000   0.000000   0.000000
     4  C    0.000002  -0.000000  -0.000000   0.000003  -0.000000   0.000000
     5  C   -0.000305  -0.000001   0.000002   0.000091   0.000000   0.000000
     6  C   -0.000402  -0.000020   0.000007   0.000066   0.000002   0.000000
     7  H    0.000000   0.000000   0.000000  -0.000000  -0.000000  -0.000000
     8  H    0.000000   0.000000   0.000000  -0.000000  -0.000000  -0.000000
     9  H    0.000201   0.000001   0.000006  -0.000190  -0.000000  -0.000000
    10  C    0.004672   0.000952  -0.000842  -0.000183   0.000133  -0.000011
    11  C    0.000262   0.000574  -0.000028   0.000000  -0.000013  -0.000003
    12  C    0.000625  -0.000571   0.000223  -0.000007  -0.000202  -0.000088
    13  C    0.016639   0.000904  -0.009087   0.000256  -0.001053  -0.000005
    14  C    0.000904   0.051477  -0.002076  -0.000001  -0.005918   0.000085
[...]
 
              Baa    -0.0041    -2.164    -0.772    -0.722 -0.0241  0.3447  0.9384
    41 H(1)   Bbb    -0.0026    -1.379    -0.492    -0.460 -0.6537  0.7048 -0.2757
              Bcc     0.0066     3.543     1.264     1.182  0.7564  0.6201 -0.2083
 
              Baa    -0.0041    -2.163    -0.772    -0.722  0.0241 -0.3446  0.9384
    42 H(1)   Bbb    -0.0026    -1.379    -0.492    -0.460 -0.6537  0.7048  0.2756
              Bcc     0.0066     3.542     1.264     1.181  0.7564  0.6201  0.2083
 
              Baa    -0.0079    -4.199    -1.498    -1.401 -0.0001 -0.0001  1.0000
    43 H(1)   Bbb    -0.0066    -3.531    -1.260    -1.178  0.7531 -0.6579 -0.0000
              Bcc     0.0145     7.730     2.758     2.578  0.6579  0.7531  0.0002
 
              Baa    -0.8764  -110.668   -39.489   -36.915  1.0000  0.0000  0.0000
    44 Co(59) Bbb     0.0398     5.025     1.793     1.676 -0.0000  1.0000  0.0000
              Bcc     0.8366   105.643    37.696    35.239 -0.0000 -0.0000  1.0000
 

 ---------------------------------------------------------------------------------

   1 Symmetry operations used in ECPInt.
 ECPInt:  NShTT=   11781 NPrTT=   71406 LenC2=    9522 LenP2D=   32051.
 LDataN:  DoStor=T MaxTD1= 7 Len=  274
 Calling FoFJK, ICntrl=      2127 FMM=F ISym2X=0 I1Cent= 0 IOpClX= 1 NMat=1 NMatS=1 NMatT=0.
 -------------------------------------------------------------------
 Center     Atomic                   Forces (Hartrees/Bohr)
 Number     Number              X              Y              Z
 -------------------------------------------------------------------
      1        6          -0.000010587   -0.078854378   -0.000016487
      2        6           0.068614343    0.041714990    0.000013341
      3        6          -0.004313843    0.002838761   -0.000003126
      4        6           0.000005975    0.007927706   -0.000000977
      5        6           0.004304978    0.002847873   -0.000003239
      6        6          -0.068592453    0.041702744    0.000012117
      7        1          -0.001127342    0.006720401   -0.000000784
      8        1           0.000000016    0.002249381    0.000000870
      9        1           0.001128275    0.006719881   -0.000000863
     10        6          -0.010725227   -0.005680753    0.000001825
     11        6           0.000986845    0.004306178    0.000001441
     12        6           0.013758761    0.006497052   -0.000001416
     13        6           0.012329030    0.003486872   -0.000001682
     14        6           0.002833853    0.006229772   -0.000001125
     15        6          -0.011794293    0.006732925    0.000001096
     16        1           0.000827586    0.000008795   -0.000000260
     17        6           0.001484742   -0.011800562    0.000000632
     18        1           0.002254266   -0.000447298    0.000000348
     19        1           0.001392287    0.000016308   -0.000000320
     20        1           0.002135461    0.000044545   -0.000000152
     21        6           0.010697295   -0.005649036    0.000000816
     22        6          -0.000988344    0.004308476   -0.000001817
     23        6          -0.013726802    0.006497472   -0.000001701
     24        6          -0.012307415    0.003453508   -0.000001129
     25        6          -0.002864295    0.006233728   -0.000001114
     26        6           0.011786544    0.006743097    0.000000291
     27        1          -0.000826310    0.000016782   -0.000000088
     28        6          -0.001472601   -0.011813135    0.000000821
     29        1          -0.002252063   -0.000445282    0.000000111
     30        1          -0.001390039    0.000012678   -0.000000246
     31        1          -0.002138797    0.000044182   -0.000000051
     32        7          -0.022504522   -0.061928805    0.000001711
     33        7           0.027562713    0.020980604    0.000004121
     34        7           0.022499702   -0.061909081   -0.000001567
     35        7          -0.027566680    0.020979930    0.000002693
     36        6           0.000894276   -0.010148118   -0.000002079
     37        1           0.001234382    0.000686272    0.000834992
     38        1           0.001233502    0.000686749   -0.000834618
     39        1           0.000373746    0.002995533    0.000001662
     40        6          -0.000890748   -0.010146986   -0.000002380
     41        1          -0.001234020    0.000686738   -0.000833876
     42        1          -0.001235379    0.000685433    0.000834211
     43        1          -0.000374647    0.002995187    0.000001883
     44       27          -0.000002172    0.040772883   -0.000003882
 -------------------------------------------------------------------
 Cartesian Forces:  Max     0.078854378 RMS     0.016095594

 GradGradGradGradGradGradGradGradGradGradGradGradGradGradGradGradGradGrad
 Berny optimization.
 Search for a local minimum.
 Step number   1 out of a maximum of    2
 All quantities printed in internal units (Hartrees-Bohrs-Radians)
 Second derivative matrix not updated -- first step.
 ITU=  0
     Eigenvalues ---    0.00056   0.00057   0.00200   0.00250   0.00251
     Eigenvalues ---    0.00392   0.00452   0.00616   0.00673   0.00675
     Eigenvalues ---    0.00690   0.00829   0.00847   0.01338   0.01580
     Eigenvalues ---    0.01823   0.02054   0.02084   0.02557   0.02571
     Eigenvalues ---    0.03089   0.03174   0.04116   0.04220   0.04487
     Eigenvalues ---    0.04526   0.04700   0.05391   0.05547   0.06227
     Eigenvalues ---    0.06292   0.06918   0.06949   0.07082   0.07083
     Eigenvalues ---    0.07086   0.07295   0.07689   0.07753   0.09608
     Eigenvalues ---    0.10098   0.10264   0.10408   0.11665   0.11928
     Eigenvalues ---    0.12007   0.12342   0.12443   0.12881   0.13398
     Eigenvalues ---    0.13399   0.13465   0.13708   0.14840   0.15486
     Eigenvalues ---    0.15714   0.15908   0.19735   0.20191   0.20533
     Eigenvalues ---    0.21079   0.21977   0.24104   0.25186   0.28651
     Eigenvalues ---    0.29592   0.30061   0.30916   0.30987   0.31975
     Eigenvalues ---    0.32033   0.35126   0.35812   0.36955   0.38190
     Eigenvalues ---    0.38252   0.41429   0.41846   0.44688   0.48011
     Eigenvalues ---    0.48577   0.49257   0.49410   0.51213   0.52344
     Eigenvalues ---    0.53936   0.55844   0.57079   0.63421   0.67149
     Eigenvalues ---    0.69343   0.71455   0.72979   0.74353   0.87522
     Eigenvalues ---    0.90115   0.91041   0.91421   0.93301   0.94750
     Eigenvalues ---    0.95631   0.97295   0.99864   1.04170   1.12607
     Eigenvalues ---    1.15944   1.16473   1.19038   1.20988   1.24447
     Eigenvalues ---    1.31127   1.38177   1.38569   1.46615   1.47790
     Eigenvalues ---    1.50523   1.51488   1.54057   1.61994   1.65289
     Eigenvalues ---    1.66906   1.67724   1.79850   1.80805   1.90971
     Eigenvalues ---    1.94215
 Quadratic step=4.289D-01 exceeds max=3.000D-01 adjusted using Lamda=-2.608D-02.
 Angle between NR and scaled steps=  25.41 degrees.
 Angle between quadratic step and forces=  46.55 degrees.
 Linear search not attempted -- first point.
 B after Tr=    -0.000000   -0.002702   -0.000001
         Rot=    1.000000   -0.000000   -0.000000   -0.000000 Ang=  -0.00 deg.
 Variable       Old X    -DE/DX   Delta X   Delta X   Delta X     New X
                                 (Linear)    (Quad)   (Total)
    X1        0.00001  -0.00001   0.00000  -0.00001  -0.00001   0.00000
    Y1        1.55350  -0.07885   0.00000  -0.15841  -0.16111   1.39239
    Z1        0.00022  -0.00002   0.00000  -0.00004  -0.00004   0.00018
    X2       -2.44980   0.06861   0.00000   0.09326   0.09326  -2.35654
    Y2        2.56326   0.04171   0.00000  -0.01685  -0.01955   2.54371
    Z2       -0.00000   0.00001   0.00000   0.00004   0.00004   0.00004
    X3       -2.36474  -0.00431   0.00000   0.02981   0.02981  -2.33492
    Y3        5.19537   0.00284   0.00000   0.01098   0.00827   5.20364
    Z3       -0.00001  -0.00000   0.00000   0.00001   0.00001  -0.00000
    X4       -0.00000   0.00001   0.00000   0.00000   0.00000   0.00000
    Y4        6.39087   0.00793   0.00000   0.05373   0.05103   6.44190
    Z4        0.00002  -0.00000   0.00000  -0.00001  -0.00000   0.00002
    X5        2.36475   0.00430   0.00000  -0.02982  -0.02982   2.33493
    Y5        5.19536   0.00285   0.00000   0.01098   0.00828   5.20364
    Z5        0.00008  -0.00000   0.00000   0.00000   0.00000   0.00008
    X6        2.44978  -0.06859   0.00000  -0.09325  -0.09325   2.35653
    Y6        2.56327   0.04170   0.00000  -0.01685  -0.01955   2.54372
    Z6        0.00007   0.00001   0.00000   0.00003   0.00003   0.00011
    X7       -4.08342  -0.00113   0.00000   0.02385   0.02385  -4.05958
    Y7        6.29532   0.00672   0.00000   0.02611   0.02341   6.31873
    Z7       -0.00008  -0.00000   0.00000  -0.00001  -0.00001  -0.00008
    X8        0.00000   0.00000   0.00000   0.00000   0.00000   0.00000
    Y8        8.43938   0.00225   0.00000   0.05605   0.05335   8.49273
    Z8       -0.00002   0.00000   0.00000  -0.00000   0.00000  -0.00002
    X9        4.08343   0.00113   0.00000  -0.02385  -0.02385   4.05958
    Y9        6.29532   0.00672   0.00000   0.02611   0.02341   6.31873
    Z9        0.00010  -0.00000   0.00000  -0.00002  -0.00002   0.00008
   X10        6.98353  -0.01073   0.00000  -0.03642  -0.03642   6.94711
   Y10        1.10389  -0.00568   0.00000  -0.01510  -0.01780   1.08609
   Z10       -0.00005   0.00000   0.00000   0.00000   0.00000  -0.00005
   X11        3.62712   0.00099   0.00000  -0.04254  -0.04254   3.58459
   Y11       -1.70867   0.00431   0.00000  -0.00495  -0.00765  -1.71632
   Z11        0.00018   0.00000   0.00000  -0.00000  -0.00001   0.00018
   X12        7.90221   0.01376   0.00000  -0.00817  -0.00817   7.89404
   Y12       -1.40745   0.00650   0.00000   0.00916   0.00646  -1.40099
   Z12       -0.00017  -0.00000   0.00000  -0.00000  -0.00000  -0.00017
   X13        8.58950   0.01233   0.00000  -0.01631  -0.01631   8.57319
   Y13        3.15023   0.00349   0.00000  -0.00573  -0.00844   3.14180
   Z13       -0.00011  -0.00000   0.00000  -0.00001  -0.00000  -0.00011
   X14       10.47417   0.00283   0.00000  -0.00130  -0.00130  10.47287
   Y14       -1.89172   0.00623   0.00000   0.00768   0.00498  -1.88675
   Z14       -0.00036  -0.00000   0.00000  -0.00000  -0.00000  -0.00037
   X15       11.20435  -0.01179   0.00000  -0.02598  -0.02598  11.17838
   Y15        2.65560   0.00673   0.00000  -0.00122  -0.00392   2.65167
   Z15       -0.00032   0.00000   0.00000  -0.00000   0.00000  -0.00032
   X16        7.87963   0.00083   0.00000  -0.00265  -0.00265   7.87698
   Y16        5.07027   0.00001   0.00000  -0.00139  -0.00409   5.06618
   Z16        0.00002  -0.00000   0.00000  -0.00001  -0.00001   0.00001
   X17       12.10735   0.00148   0.00000  -0.00169  -0.00169  12.10566
   Y17        0.20088  -0.01180   0.00000  -0.00752  -0.01023   0.19065
   Z17       -0.00046   0.00000   0.00000   0.00001   0.00001  -0.00046
   X18       11.17310   0.00225   0.00000   0.01525   0.01525  11.18834
   Y18       -3.81680  -0.00045   0.00000   0.00991   0.00720  -3.80960
   Z18       -0.00046   0.00000   0.00000   0.00001   0.00000  -0.00045
   X19       12.50383   0.00139   0.00000  -0.01723  -0.01723  12.48660
   Y19        4.23982   0.00002   0.00000  -0.00372  -0.00642   4.23340
   Z19       -0.00037  -0.00000   0.00000  -0.00001  -0.00000  -0.00037
   X20       14.12700   0.00214   0.00000   0.00531   0.00531  14.13231
   Y20       -0.13462   0.00004   0.00000   0.00101  -0.00169  -0.13631
   Z20       -0.00062  -0.00000   0.00000   0.00001   0.00001  -0.00061
   X21       -6.98350   0.01070   0.00000   0.03641   0.03641  -6.94709
   Y21        1.10386  -0.00565   0.00000  -0.01508  -0.01778   1.08608
   Z21       -0.00008   0.00000   0.00000   0.00001   0.00001  -0.00007
   X22       -3.62710  -0.00099   0.00000   0.04253   0.04253  -3.58457
   Y22       -1.70868   0.00431   0.00000  -0.00495  -0.00765  -1.71634
   Z22        0.00014  -0.00000   0.00000  -0.00001  -0.00001   0.00013
   X23       -7.90222  -0.01373   0.00000   0.00819   0.00819  -7.89403
   Y23       -1.40746   0.00650   0.00000   0.00917   0.00647  -1.40099
   Z23       -0.00012  -0.00000   0.00000  -0.00000  -0.00000  -0.00012
   X24       -8.58951  -0.01231   0.00000   0.01633   0.01633  -8.57319
   Y24        3.15025   0.00345   0.00000  -0.00576  -0.00846   3.14179
   Z24       -0.00010  -0.00000   0.00000  -0.00000  -0.00000  -0.00010
   X25      -10.47414  -0.00286   0.00000   0.00128   0.00128 -10.47285
   Y25       -1.89174   0.00623   0.00000   0.00768   0.00498  -1.88676
   Z25       -0.00018  -0.00000   0.00000  -0.00001  -0.00001  -0.00019
   X26      -11.20435   0.01179   0.00000   0.02598   0.02598 -11.17837
   Y26        2.65558   0.00674   0.00000  -0.00122  -0.00393   2.65165
   Z26       -0.00019   0.00000   0.00000  -0.00000  -0.00000  -0.00019
   X27       -7.87963  -0.00083   0.00000   0.00266   0.00266  -7.87697
   Y27        5.07025   0.00002   0.00000  -0.00138  -0.00409   5.06616
   Z27       -0.00005  -0.00000   0.00000  -0.00001  -0.00000  -0.00005
   X28      -12.10735  -0.00147   0.00000   0.00170   0.00170 -12.10566
   Y28        0.20087  -0.01181   0.00000  -0.00753  -0.01024   0.19063
   Z28       -0.00024   0.00000   0.00000   0.00000   0.00000  -0.00024
   X29      -11.17308  -0.00225   0.00000  -0.01525  -0.01525 -11.18834
   Y29       -3.81682  -0.00045   0.00000   0.00991   0.00721  -3.80961
   Z29       -0.00019   0.00000   0.00000  -0.00000  -0.00001  -0.00020
   X30      -12.50383  -0.00139   0.00000   0.01724   0.01724 -12.48660
   Y30        4.23981   0.00001   0.00000  -0.00373  -0.00643   4.23338
   Z30       -0.00020  -0.00000   0.00000  -0.00001  -0.00001  -0.00021
   X31      -14.12699  -0.00214   0.00000  -0.00532  -0.00532 -14.13231
   Y31       -0.13464   0.00004   0.00000   0.00101  -0.00170  -0.13633
   Z31       -0.00029  -0.00000   0.00000   0.00000   0.00000  -0.00029
   X32       -4.36797  -0.02250   0.00000   0.03878   0.03878  -4.32919
   Y32        0.91092  -0.06193   0.00000  -0.06414  -0.06685   0.84407
   Z32        0.00002   0.00000   0.00000   0.00002   0.00002   0.00004
   X33       -5.89625   0.02756   0.00000   0.05162   0.05162  -5.84463
   Y33       -3.03529   0.02098   0.00000   0.03031   0.02760  -3.00768
   Z33       -0.00008   0.00000   0.00000   0.00001   0.00001  -0.00007
   X34        4.36798   0.02250   0.00000  -0.03879  -0.03879   4.32919
   Y34        0.91090  -0.06191   0.00000  -0.06413  -0.06683   0.84406
   Z34        0.00014  -0.00000   0.00000   0.00001   0.00001   0.00015
   X35        5.89627  -0.02757   0.00000  -0.05162  -0.05162   5.84465
   Y35       -3.03528   0.02098   0.00000   0.03031   0.02760  -3.00767
   Z35       -0.00006   0.00000   0.00000   0.00000   0.00000  -0.00006
   X36        6.03952   0.00089   0.00000  -0.01564  -0.01565   6.02388
   Y36       -5.72330  -0.01015   0.00000   0.01323   0.01053  -5.71277
   Z36        0.00002  -0.00000   0.00000  -0.00000  -0.00000   0.00001
   X37        7.01304   0.00123   0.00000   0.00146   0.00146   7.01450
   Y37       -6.42466   0.00069   0.00000   0.02457   0.02187  -6.40279
   Z37       -1.69092   0.00083   0.00000   0.00527   0.00526  -1.68566
   X38        7.01219   0.00123   0.00000   0.00146   0.00146   7.01365
   Y38       -6.42468   0.00069   0.00000   0.02458   0.02187  -6.40281
   Z38        1.69145  -0.00083   0.00000  -0.00526  -0.00527   1.68618
   X39        4.12845   0.00037   0.00000  -0.01290  -0.01290   4.11555
   Y39       -6.51218   0.00300   0.00000   0.01898   0.01628  -6.49590
   Z39       -0.00051   0.00000   0.00000   0.00002   0.00001  -0.00050
   X40       -6.03951  -0.00089   0.00000   0.01565   0.01565  -6.02386
   Y40       -5.72331  -0.01015   0.00000   0.01323   0.01053  -5.71278
   Z40        0.00009  -0.00000   0.00000  -0.00000  -0.00000   0.00009
   X41       -7.01205  -0.00123   0.00000  -0.00146  -0.00146  -7.01351
   Y41       -6.42466   0.00069   0.00000   0.02458   0.02188  -6.40278
   Z41        1.69160  -0.00083   0.00000  -0.00526  -0.00526   1.68634
   X42       -7.01314  -0.00124   0.00000  -0.00146  -0.00146  -7.01460
   Y42       -6.42470   0.00069   0.00000   0.02457   0.02187  -6.40283
   Z42       -1.69077   0.00083   0.00000   0.00527   0.00526  -1.68550
   X43       -4.12843  -0.00037   0.00000   0.01290   0.01290  -4.11553
   Y43       -6.51218   0.00300   0.00000   0.01897   0.01627  -6.49591
   Z43       -0.00057   0.00000   0.00000   0.00002   0.00002  -0.00055
   X44        0.00002  -0.00000   0.00000  -0.00001  -0.00001   0.00001
   Y44       -2.32372   0.04077   0.00000   0.05575   0.05305  -2.27067
   Z44        0.00029  -0.00000   0.00000  -0.00003  -0.00003   0.00026
         Item               Value     Threshold  Converged?
 Maximum Force            0.078854     0.000450     NO 
 RMS     Force            0.016096     0.000300     NO 
 Maximum Displacement     0.161108     0.001800     NO 
 RMS     Displacement     0.026090     0.001200     NO 
 Predicted change in Energy=-2.026982D-02
 GradGradGradGradGradGradGradGradGradGradGradGradGradGradGradGradGradGrad

 Unable to Open any file for archive entry.
 1\1\GINC-X11P1N5\Force\UPBE1PBE\GenECP\C22H17Co1N4(3)\MAYUMIAO\17-Jul-
 2024\0\\# pbe1pbe em=gd3bj genecp g09default scf=(xqc,maxcycle=64) for
 ce guess=read nosymm\\Title Card\\0,3\C,0.00000491,0.82207822,0.000117
 15\C,-1.29637781,1.35641954,-0.00000015\C,-1.2513656,2.74926942,-0.000
 00628\C,-0.00000104,3.38190031,0.00001321\C,1.25137265,2.74926506,0.00
 004178\C,1.29636893,1.35642336,0.00003876\H,-2.16085393,3.33134156,-0.
 00004024\H,0.00000006,4.46592818,-0.00001151\H,2.16085615,3.33134226,0
 .00005113\C,3.69552416,0.58415429,-0.0000286\C,1.91939158,-0.9041894,0
 .00009735\C,4.18166935,-0.74478935,-0.00008828\C,4.54536677,1.66703154
 ,-0.00005616\C,5.54269323,-1.00105669,-0.00019225\C,5.92908854,1.40528
 136,-0.00017067\H,4.16972038,2.68306868,0.00000832\C,6.40693421,0.1062
 9916,-0.00024365\H,5.91254838,-2.01976343,-0.00024225\H,6.61673976,2.2
 4361569,-0.00019528\H,7.47568758,-0.07123616,-0.00032924\C,-3.69551019
 ,0.58413876,-0.00004209\C,-1.91937984,-0.90419699,0.00007301\C,-4.1816
 7535,-0.74479664,-0.00006322\C,-4.54537525,1.66703971,-0.00005384\C,-5
 .54267365,-1.00106635,-0.00009718\C,-5.92908653,1.40527074,-0.00009987
 \H,-4.16972084,2.68306144,-0.00002414\C,-6.40693473,0.10629561,-0.0001
 2553\H,-5.9125413,-2.01977256,-0.00010298\H,-6.61674324,2.24360965,-0.
 00010724\H,-7.47568126,-0.07124747,-0.00015403\N,-2.31143,0.48203606,0
 .00001162\N,-3.12016285,-1.60620445,-0.0000402\N,2.31143398,0.48202709
 ,0.00007503\N,3.12017106,-1.60619929,-0.0000316\C,3.19597841,-3.028638
 57,0.00000924\H,3.71114019,-3.39978262,-0.89479802\H,3.71068922,-3.399
 79563,0.89507503\H,2.18468117,-3.44609525,-0.00027097\C,-3.19597207,-3
 .02864364,0.00004725\H,-3.71061672,-3.39978305,0.8951573\H,-3.71119168
 ,-3.39980683,-0.89471587\H,-2.18467154,-3.4460959,-0.00029928\Co,0.000
 01052,-1.22966008,0.00015439\\Version=ES64L-G16RevC.01\HF=-1212.106328
 8\S2=2.313655\S2-1=0.\S2A=2.008041\RMSD=2.777e-09\RMSF=1.610e-02\Dipol
 e=0.0001018,-1.3790398,-0.0002392\Quadrupole=8.3053232,10.8495229,-19.
 1548461,-0.0000234,-0.000326,0.0008146\PG=C01 [X(C22H17Co1N4)]\\@
 The archive entry for this job was punched.


 Boundary, n.  In political geography, an imaginary
 line between two nations, separating the imaginary
 rights of one from the imaginary rights of another.
                               -- Ambrose Bierce
 Job cpu time:       0 days  0 hours 41 minutes 57.1 seconds.
 Elapsed time:       0 days  0 hours  0 minutes 45.7 seconds.
 File lengths (MBytes):  RWF=    184 Int=      0 D2E=      0 Chk=     72 Scr=      1
 Normal termination of Gaussian 16 at Wed Jul 17 21:07:28 2024.
