 Entering Gaussian System, Link 0=g16
 Input=JOBS/23_A.gjf
 Output=JOBS/23_A.log
 Initial command:
 /data/app/gaussian/C01-avx2//g16/l1.exe "/tmp/Gau-2075430.inp" -scrdir="/tmp/"
 Entering Link 1 = /data/app/gaussian/C01-avx2//g16/l1.exe PID=   2075431.
  
 Copyright (c) 1988-2019, Gaussian, Inc.  All Rights Reserved.
  
 This is part of the Gaussian(R) 16 program.  It is based on
 the Gaussian(R) 09 system (copyright 2009, Gaussian, Inc.),
 the Gaussian(R) 03 system (copyright 2003, Gaussian, Inc.),
 the Gaussian(R) 98 system (copyright 1998, Gaussian, Inc.),
 the Gaussian(R) 94 system (copyright 1995, Gaussian, Inc.),
 the Gaussian 92(TM) system (copyright 1992, Gaussian, Inc.),
 the Gaussian 90(TM) system (copyright 1990, Gaussian, Inc.),
 the Gaussian 88(TM) system (copyright 1988, Gaussian, Inc.),
 the Gaussian 86(TM) system (copyright 1986, Carnegie Mellon
 University), and the Gaussian 82(TM) system (copyright 1983,
 Carnegie Mellon University). Gaussian is a federally registered
 trademark of Gaussian, Inc.
  
 This software contains proprietary and confidential information,
 including trade secrets, belonging to Gaussian, Inc.
  
 This software is provided under written license and may be
 used, copied, transmitted, or stored only in accord with that
 written license.
  
 The following legend is applicable only to US Government
 contracts under FAR:
  
                    RESTRICTED RIGHTS LEGEND
  
 Use, reproduction and disclosure by the US Government is
 subject to restrictions as set forth in subparagraphs (a)
 and (c) of the Commercial Computer Software - Restricted
 Rights clause in FAR 52.227-19.
  
 Gaussian, Inc.
 340 Quinnipiac St., Bldg. 40, Wallingford CT 06492
  
  
 ---------------------------------------------------------------
 Warning -- This program may not be used in any manner that
 competes with the business of Gaussian, Inc. or will provide
 assistance to any competitor of Gaussian, Inc.  The licensee
 of this program is prohibited from giving any competitor of
 Gaussian, Inc. access to this program.  By using this program,
 the user acknowledges that Gaussian, Inc. is engaged in the
 business of creating and licensing software in the field of
 computational chemistry and represents and warrants to the
 licensee that it is not a competitor of Gaussian, Inc. and that
 it will not use this program in any manner prohibited above.
 ---------------------------------------------------------------
  

 Cite this work as:
 Gaussian 16, Revision C.01,
 M. J. Frisch, G. W. Trucks, H. B. Schlegel, G. E. Scuseria, 
 M. A. Robb, J. R. Cheeseman, G. Scalmani, V. Barone, 
 G. A. Petersson, H. Nakatsuji, X. Li, M. Caricato, A. V. Marenich, 
 J. Bloino, B. G. Janesko, R. Gomperts, B. Mennucci, H. P. Hratchian, 
 J. V. Ortiz, A. F. Izmaylov, J. L. Sonnenberg, D. Williams-Young, 
 F. Ding, F. Lipparini, F. Egidi, J. Goings, B. Peng, A. Petrone, 
 T. Henderson, D. Ranasinghe, V. G. Zakrzewski, J. Gao, N. Rega, 
 G. Zheng, W. Liang, M. Hada, M. Ehara, K. Toyota, R. Fukuda, 
 J. Hasegawa, M. Ishida, T. Nakajima, Y. Honda, O. Kitao, H. Nakai, 
 T. Vreven, K. Throssell, J. A. Montgomery, Jr., J. E. Peralta, 
 F. Ogliaro, M. J. Bearpark, J. J. Heyd, E. N. Brothers, K. N. Kudin, 
 V. N. Staroverov, T. A. Keith, R. Kobayashi, J. Normand, 
 K. Raghavachari, A. P. Rendell, J. C. Burant, S. S. Iyengar, 
 J. Tomasi, M. Cossi, J. M. Millam, M. Klene, C. Adamo, R. Cammi, 
 J. W. Ochterski, R. L. Martin, K. Morokuma, O. Farkas, 
 J. B. Foresman, and D. J. Fox, Gaussian, Inc., Wallingford CT, 2019.
 
 ******************************************
 Gaussian 16:  ES64L-G16RevC.01  3-Jul-2019
                17-Jul-2024 
 ******************************************
 %chk=a.chk
 %nprocshared=56
 Will use up to   56 processors via shared memory.
 %mem=96gb
 ----------------------------------------------------------------------
 # pbe1pbe em=gd3bj genecp g09default scf=(xqc,maxcycle=64) force guess
 =read nosymm
 ----------------------------------------------------------------------
 1/10=7,30=1,38=1,158=3,167=1/1,3;
 2/12=2,15=1,17=6,18=5,40=1/2;
 3/5=7,11=2,16=1,17=8,25=1,27=10,30=1,71=1,74=-13,75=-4,116=-2,124=41,158=3/1,2,3;
 4/5=1,60=-1/1;
 5/5=2,7=64,8=3,13=1,38=6,87=10/2,8;
 6/7=2,8=2,9=2,10=2,28=1,87=10/1;
 7/29=1,30=1,87=10/1,2,3,16;
 1/10=7,30=1,158=3,167=1/3;
 99//99;
 Using 2006 physical constants.
 ----------
 Title Card
 ----------
 Symbolic Z-matrix:
 Charge =  0 Multiplicity = 1
 6                     0.        0.84378   0.00005 
 6                    -1.29303   1.36107   0.00001 
 6                    -1.24303   2.75423  -0.00001 
 6                    0.         3.39696   0.00001 
 6                     1.24304   2.75423   0.00004 
 6                     1.29302   1.36107   0.00005 
 1                    -2.15765   3.33108  -0.00004 
 1                     0.        4.47829  -0.00001 
 1                     2.15765   3.33107   0.00005 
 6                     3.70167   0.58313  -0.00003 
 6                     1.92846  -0.90615   0.00014 
 6                     4.19201  -0.74498  -0.00009 
 6                     4.5535    1.66586  -0.00006 
 6                     5.55196  -1.0006   -0.00019 
 6                     5.93045   1.40796  -0.00017 
 1                     4.1729    2.68256   0.00001 
 6                     6.41493   0.10509  -0.00024 
 1                     5.91931  -2.02063  -0.00024 
 1                     6.62207   2.24483  -0.0002 
 1                     7.48053  -0.07115  -0.00033 
 6                    -3.70166   0.58313  -0.00004 
 6                    -1.92844  -0.90616   0.00011 
 6                    -4.19202  -0.745    -0.00006 
 6                    -4.55351   1.66585  -0.00005 
 6                    -5.55193  -1.0006   -0.0001 
 6                    -5.93044   1.40795  -0.0001 
 1                    -4.1729    2.68256  -0.00002 
 6                    -6.41494   0.10508  -0.00013 
 1                    -5.9193   -2.02064  -0.0001 
 1                    -6.62208   2.24483  -0.00011 
 1                    -7.48052  -0.07116  -0.00015 
 7                    -2.31513   0.4722   0. 
 7                    -3.12572  -1.60818  -0.00006 
 7                     2.31513   0.4722    0.00006 
 7                     3.12572  -1.60818  -0.00004 
 6                     3.20149  -3.0313    0. 
 1                     3.71509  -3.40441  -0.89524 
 1                     3.71463  -3.40443   0.89552 
 1                     2.18611  -3.44282  -0.00027 
 6                    -3.20148  -3.03131   0.00004 
 1                    -3.71456  -3.40442   0.89561 
 1                    -3.71514  -3.40444  -0.89516 
 1                    -2.1861   -3.44282  -0.0003 
 27                    0.00001  -1.25154   0.00017 
 

 GradGradGradGradGradGradGradGradGradGradGradGradGradGradGradGradGradGrad
 Berny optimization.
 Initialization pass.
 Trust Radius=3.00D-01 FncErr=1.00D-07 GrdErr=1.00D-07 EigMax=2.50D+02 EigMin=1.00D-04
 Number of steps in this run=      2 maximum allowed number of steps=      2.
 GradGradGradGradGradGradGradGradGradGradGradGradGradGradGradGradGradGrad

                          Input orientation:                          
 ---------------------------------------------------------------------
 Center     Atomic      Atomic             Coordinates (Angstroms)
 Number     Number       Type             X           Y           Z
 ---------------------------------------------------------------------
      1          6           0        0.000001    0.843782    0.000052
      2          6           0       -1.293025    1.361074    0.000013
      3          6           0       -1.243026    2.754228   -0.000007
      4          6           0       -0.000003    3.396959    0.000012
      5          6           0        1.243042    2.754227    0.000040
      6          6           0        1.293018    1.361074    0.000053
      7          1           0       -2.157651    3.331077   -0.000039
      8          1           0        0.000001    4.478290   -0.000010
      9          1           0        2.157652    3.331074    0.000052
     10          6           0        3.701672    0.583134   -0.000025
     11          6           0        1.928461   -0.906153    0.000137
     12          6           0        4.192011   -0.744984   -0.000092
     13          6           0        4.553495    1.665857   -0.000058
     14          6           0        5.551956   -1.000599   -0.000195
     15          6           0        5.930453    1.407955   -0.000171
     16          1           0        4.172905    2.682559    0.000008
     17          6           0        6.414934    0.105091   -0.000243
     18          1           0        5.919305   -2.020629   -0.000241
     19          1           0        6.622068    2.244833   -0.000196
     20          1           0        7.480529   -0.071152   -0.000329
     21          6           0       -3.701659    0.583127   -0.000037
     22          6           0       -1.928440   -0.906163    0.000108
     23          6           0       -4.192018   -0.745001   -0.000065
     24          6           0       -4.553511    1.665855   -0.000054
     25          6           0       -5.551932   -1.000603   -0.000097
     26          6           0       -5.930441    1.407950   -0.000101
     27          1           0       -4.172904    2.682555   -0.000024
     28          6           0       -6.414943    0.105083   -0.000125
     29          1           0       -5.919299   -2.020640   -0.000102
     30          1           0       -6.622076    2.244830   -0.000108
     31          1           0       -7.480520   -0.071163   -0.000154
     32          7           0       -2.315131    0.472205   -0.000001
     33          7           0       -3.125718   -1.608184   -0.000057
     34          7           0        2.315134    0.472198    0.000061
     35          7           0        3.125722   -1.608181   -0.000041
     36          6           0        3.201485   -3.031304    0.000005
     37          1           0        3.715088   -3.404415   -0.895238
     38          1           0        3.714630   -3.404427    0.895522
     39          1           0        2.186105   -3.442817   -0.000272
     40          6           0       -3.201480   -3.031310    0.000042
     41          1           0       -3.714558   -3.404416    0.895605
     42          1           0       -3.715142   -3.404443   -0.895156
     43          1           0       -2.186097   -3.442817   -0.000301
     44         27           0        0.000011   -1.251539    0.000168
 ---------------------------------------------------------------------
                    Distance matrix (angstroms):
                    1          2          3          4          5
     1  C    0.000000
     2  C    1.392662   0.000000
     3  C    2.279237   1.394051   0.000000
     4  C    2.553177   2.411790   1.399360   0.000000
     5  C    2.279244   2.893529   2.486068   1.399380   0.000000
     6  C    1.392654   2.586043   2.893509   2.411789   1.394049
     7  H    3.292734   2.151392   1.081339   2.158653   3.449270
     8  H    3.634508   3.374752   2.125442   1.081331   2.125451
     9  H    3.292732   3.973421   3.449256   2.158661   1.081326
    10  C    3.710836   5.054918   5.400341   4.649732   3.280016
    11  C    2.604079   3.939326   4.843214   4.715479   3.724001
    12  C    4.482982   5.875466   6.464063   5.893104   4.576123
    13  C    4.627107   5.854460   5.897814   4.871454   3.484775
    14  C    5.850295   7.240944   7.763409   7.082568   5.715371
    15  C    5.957227   7.223630   7.298716   6.255113   4.876912
    16  H    4.560069   5.623408   5.416405   4.233619   2.930740
    17  C    6.457324   7.809618   8.103226   7.210257   5.810885
    18  H    6.575942   7.965779   8.608034   8.024242   6.683314
    19  H    6.768657   7.964279   7.881573   6.721549   5.403093
    20  H    7.536273   8.889687   9.169689   8.245372   6.847556
    21  C    3.710825   2.531149   3.280023   4.649721   5.400346
    22  C    2.604072   2.354594   3.724010   4.715477   4.843217
    23  C    4.482996   3.583254   4.576151   5.893116   6.464091
    24  C    4.627124   3.274700   3.484805   4.871464   5.897845
    25  C    5.850275   4.869888   5.715368   7.082547   7.763403
    26  C    5.957216   4.637652   4.876917   6.255098   7.298720
    27  H    4.560068   3.168598   2.930754   4.233612   5.416420
    28  C    6.457335   5.273666   5.810911   7.210263   8.103252
    29  H    6.575943   5.730480   6.683330   8.024241   8.608048
    30  H    6.768666   5.401834   5.403116   6.721551   7.881596
    31  H    7.536266   6.351093   6.847566   8.245362   9.169697
    32  N    2.344761   1.354543   2.521317   3.730147   4.227081
    33  N    3.972688   3.489305   4.751333   5.900978   6.173871
    34  N    2.344763   3.716035   4.227075   3.730158   2.521316
    35  N    3.972689   5.323702   6.173862   5.900981   4.751325
    36  C    5.026509   6.284394   7.295619   7.181371   6.108017
    37  H    5.714070   6.970836   7.956960   7.801414   6.696373
    38  H    5.713809   6.970549   7.956718   7.801236   6.696242
    39  H    4.811859   5.931418   7.082536   7.180641   6.268391
    40  C    5.026511   4.789075   6.108027   7.181371   7.295629
    41  H    5.713768   5.419944   6.696229   7.801198   7.956677
    42  H    5.714114   5.420160   6.696408   7.801452   7.957021
    43  H    4.811856   4.886200   6.268393   7.180637   7.082539
    44  Co   2.095321   2.915080   4.194200   4.648498   4.194197
                    6          7          8          9         10
     6  C    0.000000
     7  H    3.973415   0.000000
     8  H    3.374748   2.443677   0.000000
     9  H    2.151393   4.315303   2.443678   0.000000
    10  C    2.531167   6.471696   5.373510   3.152011   0.000000
    11  C    2.354593   5.886461   5.719369   4.243421   2.315654
    12  C    3.583245   7.545361   6.697428   4.555531   1.415743
    13  C    3.274692   6.914654   5.352018   2.917707   1.377640
    14  C    4.869914   8.843159   7.800156   5.503153   2.435521
    15  C    4.637672   8.313592   6.678115   4.234668   2.376509
    16  H    3.168607   6.363687   4.542882   2.117030   2.151661
    17  C    5.273662   9.159486   7.763777   5.341481   2.755053
    18  H    5.730484   9.689065   8.790569   6.541465   3.420158
    19  H    5.401834   8.846660   6.988570   4.594663   3.360054
    20  H    6.351108  10.221041   8.755326   6.317291   3.835082
    21  C    5.054898   3.152013   5.373506   6.471687   7.403331
    22  C    3.939309   4.243435   5.719372   5.886453   5.823759
    23  C    5.875472   4.555552   6.697446   7.545376   8.004641
    24  C    5.854468   2.917724   5.352033   6.914670   8.325883
    25  C    7.240916   5.503144   7.800143   8.843140   9.388153
    26  C    7.223611   4.234662   6.678107   8.313582   9.667363
    27  H    5.623399   2.117032   4.542884   6.363687   8.149633
    28  C    7.809621   5.341495   7.763790   9.159498  10.127903
    29  H    7.965772   6.541473   8.790575   9.689066   9.967082
    30  H    7.964279   4.594674   6.988580   8.846669  10.456625
    31  H    8.889672   6.317291   8.755324  10.221036  11.201317
    32  N    3.716023   2.863206   4.626937   5.308382   6.017825
    33  N    5.323694   5.033234   6.842169   7.232584   7.170434
    34  N    1.354556   5.308388   4.626944   2.863210   1.390969
    35  N    3.489310   7.232586   6.842168   5.033230   2.265740
    36  C    4.789075   8.318667   8.163547   6.447437   3.648883
    37  H    5.420134   8.980941   8.760156   6.970937   4.086824
    38  H    5.419970   8.980686   8.760004   6.970870   4.086908
    39  H    4.886203   8.046978   8.217237   6.773952   4.301770
    40  C    6.284389   6.447445   8.163551   8.318667   7.792157
    41  H    6.970489   6.970868   8.759972   8.980628   8.467772
    42  H    6.970884   6.970957   8.760197   8.980997   8.468244
    43  H    5.931410   6.773954   8.217236   8.046973   7.132609
    44  Co   2.915067   5.065163   5.729829   5.065152   4.131382
                   11         12         13         14         15
    11  C    0.000000
    12  C    2.269281   0.000000
    13  C    3.675056   2.437790   0.000000
    14  C    3.624726   1.383759   2.847264   0.000000
    15  C    4.622882   2.767187   1.400901   2.438113   0.000000
    16  H    4.232775   3.427596   1.085603   3.932866   2.171080
    17  C    4.599028   2.379919   2.429185   1.402598   1.390028
    18  H    4.143537   2.147281   3.931363   1.084161   3.428602
    19  H    5.653200   3.852815   2.148071   3.417305   1.085678
    20  H    5.614507   3.356844   3.403634   2.140856   2.142544
    21  C    5.823762   8.004618   8.325856   9.388162   9.667363
    22  C    3.856901   6.122573   6.973577   7.480993   8.192517
    23  C    6.122600   8.384029   9.071727   9.747326  10.348895
    24  C    6.973606   9.071731   9.107007  10.451337  10.487135
    25  C    7.480989   9.747296  10.451300  11.103888  11.732277
    26  C    8.192521  10.348872  10.487108  11.732287  11.860893
    27  H    7.078522   9.039902   8.785427  10.398968  10.183438
    28  C    8.404462  10.640963  11.078928  12.017870  12.413955
    29  H    7.926501  10.191462  11.102688  11.516518  12.335797
    30  H    9.112649  11.219780  11.190559  12.599201  12.580395
    31  H    9.445958  11.691963  12.158732  13.065576  13.492293
    32  N    4.461831   6.620003   6.971573   8.003762   8.298510
    33  N    5.102702   7.368465   8.348033   8.698919   9.545225
    34  N    1.431562   2.237007   2.536746   3.556143   3.734457
    35  N    1.387904   1.371889   3.571814   2.501153   4.118688
    36  C    2.477268   2.491667   4.887868   3.106200   5.210978
    37  H    3.199226   2.846281   5.216505   3.154919   5.372885
    38  H    3.198982   2.846516   5.216659   3.155386   5.373189
    39  H    2.549715   3.361840   5.630549   4.158532   6.127817
    40  C    5.552709   7.738927   9.066588   8.985902  10.153781
    41  H    6.235931   8.389796   9.740153   9.615044  10.816079
    42  H    6.236446   8.390288   9.740611   9.615536  10.816547
    43  H    4.833659   6.925213   8.456989   8.114303   9.455601
    44  Co   1.959135   4.222495   5.407903   5.557613   6.499465
                   16         17         18         19         20
    16  H    0.000000
    17  C    3.416143   0.000000
    18  H    5.016960   2.182736   0.000000
    19  H    2.487972   2.149744   4.322967   0.000000
    20  H    4.303871   1.080072   2.497575   2.469969   0.000000
    21  C    8.149624  10.127881   9.967071  10.456606  11.201313
    22  C    7.078512   8.404435   7.926484   9.112627   9.445949
    23  C    9.039917  10.640963  10.191471  11.219785  11.691981
    24  C    8.785444  11.078934  11.102704  11.190567  12.158755
    25  C   10.398949  12.017839  11.516499  12.599172  13.065563
    26  C   10.183429  12.413932  12.335787  12.580376  13.492289
    27  H    8.345809  10.897047  11.134300  10.803843  11.974365
    28  C   10.897059  12.829877  12.516083  13.211442  13.896590
    29  H   11.134301  12.516072  11.838605  13.246893  13.540898
    30  H   10.803852  13.211439  13.246901  13.244144  14.291510
    31  H   11.974360  13.896571  13.540891  14.291495  14.961049
    32  N    6.854215   8.737780   8.603497   9.111297   9.810718
    33  N    8.466426   9.693263   9.054422  10.481654  10.717040
    34  N    2.887388   4.116203   4.382264   4.657458   5.193894
    35  N    4.416677   3.708667   2.823866   5.202899   4.618095
    36  C    5.795851   4.490349   2.899657   6.287926   5.203145
    37  H    6.169466   4.517390   2.752173   6.416045   5.107841
    38  H    6.169551   4.517826   2.752795   6.416358   5.108353
    39  H    6.439535   5.520023   3.994922   7.212984   6.276866
    40  C    9.328979  10.114960   9.176611  11.150775  11.084577
    41  H   10.003270  10.757592   9.773880  11.813649  11.715089
    42  H   10.003709  10.758074   9.774374  11.814110  11.715571
    43  H    8.829334   9.304053   8.229227  10.484901  10.237763
    44  Co   5.734995   6.556804   5.969049   7.488408   7.573075
                   21         22         23         24         25
    21  C    0.000000
    22  C    2.315662   0.000000
    23  C    1.415760   2.269308   0.000000
    24  C    1.377661   3.675088   2.437807   0.000000
    25  C    2.435511   3.624723   1.383727   2.847252   0.000000
    26  C    2.376510   4.622892   2.767185   1.400875   2.438114
    27  H    2.151667   4.232791   3.427610   1.085607   3.932859
    28  C    2.755075   4.599057   2.379924   2.429184   1.402615
    29  H    3.420166   4.143551   2.147267   3.931364   1.084174
    30  H    3.360073   5.653227   3.852826   2.148063   3.417315
    31  H    3.835086   5.614518   3.356829   3.403617   2.140866
    32  N    1.390958   1.431582   2.237028   2.536759   3.556128
    33  N    2.265734   1.387915   1.371889   3.571823   2.501134
    34  N    6.017815   4.461816   6.620015   6.971592   8.003741
    35  N    7.170423   5.102684   7.368474   8.348050   8.698899
    36  C    7.792144   5.552689   7.738932   9.066602   8.985881
    37  H    8.468177   6.236371   8.390241   9.740571   9.615469
    38  H    8.467819   6.235971   8.389857   9.740224   9.615075
    39  H    7.132601   4.833642   6.925220   8.457006   8.114285
    40  C    3.648882   2.477273   2.491661   4.887877   3.106187
    41  H    4.086911   3.198968   2.846521   5.216674   3.155399
    42  H    4.086825   3.199251   2.846266   5.216511   3.154896
    43  H    4.301762   2.549707   3.361835   5.630557   4.158516
    44  Co   4.131388   1.959135   4.222522   5.407934   5.557611
                   26         27         28         29         30
    26  C    0.000000
    27  H    2.171072   0.000000
    28  C    1.390038   3.416153   0.000000
    29  H    3.428608   5.016966   2.182742   0.000000
    30  H    1.085692   2.487981   2.149749   4.322977   0.000000
    31  H    2.142550   4.303869   1.080054   2.497572   2.469969
    32  N    3.734446   2.887381   4.116217   4.382272   4.657465
    33  N    4.118681   4.416677   3.708677   2.823866   5.202906
    34  N    8.298502   6.854218   8.737792   8.603495   9.111308
    35  N    9.545216   8.466426   9.693274   9.054421  10.481663
    36  C   10.153770   9.328976  10.114970   9.176609  11.150782
    37  H   10.816486  10.003651  10.758036   9.774330  11.814067
    38  H   10.816123  10.003327  10.757653   9.773925  11.813710
    39  H    9.455594   8.829337   9.304065   8.229227  10.484912
    40  C    5.210975   5.795854   4.490357   2.899655   6.287935
    41  H    5.373201   6.169558   4.517853   2.752819   6.416381
    42  H    5.372876   6.169470   4.517386   2.752152   6.416047
    43  H    6.127810   6.439534   5.520030   3.994920   7.212991
    44  Co   6.499473   5.735008   6.556833   5.969067   7.488434
                   31         32         33         34         35
    31  H    0.000000
    32  N    5.193890   0.000000
    33  N    4.618087   2.232727   0.000000
    34  N    9.810712   4.630264   5.825020   0.000000
    35  N   10.717033   5.825022   6.251440   2.232719   0.000000
    36  C   11.084568   6.535107   6.485273   3.613883   1.425138
    37  H   11.715519   7.224484   7.129125   4.217768   2.091694
    38  H   11.715129   7.224144   7.128738   4.217661   2.091732
    39  H   10.237758   5.965612   5.619728   3.917142   2.061255
    40  C    5.203139   3.613894   1.425142   6.535105   6.485274
    41  H    5.108368   4.217665   2.091744   7.224079   7.128680
    42  H    5.107822   4.217788   2.091691   7.224541   7.129181
    43  H    6.276859   3.917148   2.061254   5.965604   5.619726
    44  Co   7.573086   2.886378   3.146010   2.886358   3.145992
                   36         37         38         39         40
    36  C    0.000000
    37  H    1.097479   0.000000
    38  H    1.097492   1.790759   0.000000
    39  H    1.095600   1.772069   1.772091   0.000000
    40  C    6.402965   6.984243   6.983815   5.403277   0.000000
    41  H    6.983764   7.642431   7.429188   5.968408   1.097493
    42  H    6.984288   7.430231   7.642516   5.968837   1.097477
    43  H    5.403276   5.968784   5.968463   4.372202   1.095600
    44  Co   3.662922   4.386163   4.385770   3.095272   3.662940
                   41         42         43         44
    41  H    0.000000
    42  H    1.790761   0.000000
    43  H    1.772093   1.772066   0.000000
    44  Co   4.385739   4.386225   3.095282   0.000000
 Symmetry turned off by external request.
 Stoichiometry    C22H17CoN4
 Framework group  C1[X(C22H17CoN4)]
 Deg. of freedom   126
 Full point group                 C1      NOp   1
 Rotational constants (GHZ):           0.4619741           0.1002597           0.0824679
 General basis read from cards:  (5D, 7F)
 ======================================================================================================
                                       Pseudopotential Parameters
 ======================================================================================================
  Center     Atomic      Valence      Angular      Power
  Number     Number     Electrons     Momentum     of R      Exponent        Coefficient   SO-Coeffient
 ======================================================================================================
    1          6
                                   No pseudopotential on this center.
    2          6
                                   No pseudopotential on this center.
    3          6
                                   No pseudopotential on this center.
    4          6
                                   No pseudopotential on this center.
    5          6
                                   No pseudopotential on this center.
    6          6
                                   No pseudopotential on this center.
    7          1
                                   No pseudopotential on this center.
    8          1
                                   No pseudopotential on this center.
    9          1
                                   No pseudopotential on this center.
   10          6
                                   No pseudopotential on this center.
   11          6
                                   No pseudopotential on this center.
   12          6
                                   No pseudopotential on this center.
   13          6
                                   No pseudopotential on this center.
   14          6
                                   No pseudopotential on this center.
   15          6
                                   No pseudopotential on this center.
   16          1
                                   No pseudopotential on this center.
   17          6
                                   No pseudopotential on this center.
   18          1
                                   No pseudopotential on this center.
   19          1
                                   No pseudopotential on this center.
   20          1
                                   No pseudopotential on this center.
   21          6
                                   No pseudopotential on this center.
   22          6
                                   No pseudopotential on this center.
   23          6
                                   No pseudopotential on this center.
   24          6
                                   No pseudopotential on this center.
   25          6
                                   No pseudopotential on this center.
   26          6
                                   No pseudopotential on this center.
   27          1
                                   No pseudopotential on this center.
   28          6
                                   No pseudopotential on this center.
   29          1
                                   No pseudopotential on this center.
   30          1
                                   No pseudopotential on this center.
   31          1
                                   No pseudopotential on this center.
   32          7
                                   No pseudopotential on this center.
   33          7
                                   No pseudopotential on this center.
   34          7
                                   No pseudopotential on this center.
   35          7
                                   No pseudopotential on this center.
   36          6
                                   No pseudopotential on this center.
   37          1
                                   No pseudopotential on this center.
   38          1
                                   No pseudopotential on this center.
   39          1
                                   No pseudopotential on this center.
   40          6
                                   No pseudopotential on this center.
   41          1
                                   No pseudopotential on this center.
   42          1
                                   No pseudopotential on this center.
   43          1
                                   No pseudopotential on this center.
   44         27           17
                                      F and up 
                                                     2        1.0000000        0.00000000    0.00000000
                                      S - F
                                                     2       23.6600000      283.96056600    0.00000000
                                                     2       10.6100000       47.15684600    0.00000000
                                      P - F
                                                     2       25.0400000      182.21223600    0.00000000
                                                     2       10.4400000       35.23335200    0.00000000
                                      D - F
                                                     2       29.5400000      -26.47533300    0.00000000
                                                     2       10.1800000       -1.82578700    0.00000000
 ======================================================================================================
   441 basis functions,   871 primitive gaussians,   473 cartesian basis functions
    97 alpha electrons       97 beta electrons
       nuclear repulsion energy      2483.6439864942 Hartrees.
 NAtoms=   44 NActive=   44 NUniq=   44 SFac= 1.00D+00 NAtFMM=   60 NAOKFM=F Big=F
 Integral buffers will be    131072 words long.
 Raffenetti 2 integral format.
 Two-electron integral symmetry is turned off.
 Nuclear repulsion after empirical dispersion term =     2483.5849337661 Hartrees.
 One-electron integrals computed using PRISM.
   1 Symmetry operations used in ECPInt.
 ECPInt:  NShTT=   11781 NPrTT=   71406 LenC2=    9520 LenP2D=   32031.
 LDataN:  DoStor=T MaxTD1= 6 Len=  172
 NBasis=   441 RedAO= T EigKep=  3.09D-04  NBF=   441
 NBsUse=   441 1.00D-06 EigRej= -1.00D+00 NBFU=   441
 Initial guess from the checkpoint file:  "a.chk"
 B after Tr=     0.000000   -0.004462    0.000001
         Rot=    1.000000    0.000000    0.000000   -0.000000 Ang=   0.00 deg.
 Initial guess <Sx>= 0.0000 <Sy>= 0.0000 <Sz>= 0.0000 <S**2>= 0.0000 S= 0.0000
 Requested convergence on RMS density matrix=1.00D-08 within  64 cycles.
 Requested convergence on MAX density matrix=1.00D-06.
 Requested convergence on             energy=1.00D-06.
 No special actions if energy rises.
 SCF Done:  E(UPBE1PBE) =  -1212.10345572     A.U. after   19 cycles
            NFock= 19  Conv=0.55D-08     -V/T= 2.0551
 <Sx>= 0.0000 <Sy>= 0.0000 <Sz>= 0.0000 <S**2>= 0.0000 S= 0.0000
 <L.S>=  0.00000000000    
 Annihilation of the first spin contaminant:
 S**2 before annihilation     0.0000,   after     0.0000
 QCSCF skips out because SCF is already converged.

 **********************************************************************

            Population analysis using the SCF Density.

 **********************************************************************

 Alpha  occ. eigenvalues --  -14.45794 -14.45794 -14.45323 -14.45323 -10.28330
 Alpha  occ. eigenvalues --  -10.28329 -10.27671 -10.27671 -10.27435 -10.27434
 Alpha  occ. eigenvalues --  -10.27312 -10.27312 -10.25335 -10.25334 -10.24098
 Alpha  occ. eigenvalues --  -10.24098 -10.23915 -10.23915 -10.23475 -10.23474
 Alpha  occ. eigenvalues --  -10.23418 -10.23418 -10.21467 -10.21464 -10.20992
 Alpha  occ. eigenvalues --  -10.19177  -3.82897  -2.34614  -2.34602  -2.30821
 Alpha  occ. eigenvalues --   -1.05965  -1.05902  -0.97196  -0.96875  -0.88338
 Alpha  occ. eigenvalues --   -0.88073  -0.85305  -0.80432  -0.78884  -0.78110
 Alpha  occ. eigenvalues --   -0.77951  -0.75608  -0.75061  -0.73169  -0.71848
 Alpha  occ. eigenvalues --   -0.66627  -0.65201  -0.64504  -0.64254  -0.62704
 Alpha  occ. eigenvalues --   -0.61526  -0.59028  -0.57279  -0.56782  -0.54201
 Alpha  occ. eigenvalues --   -0.53302  -0.52200  -0.49769  -0.49711  -0.49165
 Alpha  occ. eigenvalues --   -0.48668  -0.47877  -0.47498  -0.46679  -0.46272
 Alpha  occ. eigenvalues --   -0.45820  -0.45404  -0.45012  -0.44698  -0.44158
 Alpha  occ. eigenvalues --   -0.42523  -0.41880  -0.41168  -0.38675  -0.38457
 Alpha  occ. eigenvalues --   -0.38382  -0.37546  -0.36960  -0.36848  -0.36688
 Alpha  occ. eigenvalues --   -0.34806  -0.34682  -0.34512  -0.33937  -0.31777
 Alpha  occ. eigenvalues --   -0.28860  -0.26754  -0.25934  -0.24752  -0.24476
 Alpha  occ. eigenvalues --   -0.21406  -0.20816  -0.20443  -0.19948  -0.16358
 Alpha  occ. eigenvalues --   -0.15126  -0.14654
 Alpha virt. eigenvalues --   -0.04398  -0.02466  -0.00611  -0.00137   0.00907
 Alpha virt. eigenvalues --    0.01317   0.01965   0.03230   0.05399   0.05926
 Alpha virt. eigenvalues --    0.06082   0.07337   0.08898   0.09294   0.10085
 Alpha virt. eigenvalues --    0.10394   0.12655   0.13106   0.14238   0.14276
 Alpha virt. eigenvalues --    0.15316   0.15582   0.15919   0.16013   0.16538
 Alpha virt. eigenvalues --    0.16813   0.17132   0.17650   0.17939   0.18314
 Alpha virt. eigenvalues --    0.19240   0.19272   0.19784   0.20379   0.22226
 Alpha virt. eigenvalues --    0.22447   0.22478   0.22760   0.22924   0.23884
 Alpha virt. eigenvalues --    0.25900   0.25935   0.26607   0.27533   0.27919
 Alpha virt. eigenvalues --    0.28572   0.29360   0.29518   0.30510   0.31056
 Alpha virt. eigenvalues --    0.31743   0.33277   0.33747   0.34514   0.34667
 Alpha virt. eigenvalues --    0.36327   0.37755   0.38153   0.39484   0.39609
 Alpha virt. eigenvalues --    0.41601   0.43242   0.44704   0.45018   0.46058
 Alpha virt. eigenvalues --    0.47292   0.47946   0.50133   0.51289   0.51796
 Alpha virt. eigenvalues --    0.52802   0.53500   0.53716   0.56019   0.56043
 Alpha virt. eigenvalues --    0.56833   0.56964   0.57048   0.58122   0.58405
 Alpha virt. eigenvalues --    0.58622   0.59070   0.59347   0.60158   0.61466
 Alpha virt. eigenvalues --    0.61496   0.62000   0.63044   0.63155   0.63168
 Alpha virt. eigenvalues --    0.63345   0.63406   0.63469   0.63812   0.65149
 Alpha virt. eigenvalues --    0.65246   0.66177   0.66585   0.66856   0.67058
 Alpha virt. eigenvalues --    0.67608   0.68401   0.68433   0.70174   0.70869
 Alpha virt. eigenvalues --    0.72253   0.73590   0.73931   0.75800   0.76249
 Alpha virt. eigenvalues --    0.76562   0.77158   0.78200   0.79573   0.80045
 Alpha virt. eigenvalues --    0.81000   0.81956   0.82752   0.83293   0.83844
 Alpha virt. eigenvalues --    0.84337   0.84454   0.85053   0.86606   0.86768
 Alpha virt. eigenvalues --    0.87057   0.87339   0.87642   0.89851   0.89937
 Alpha virt. eigenvalues --    0.90503   0.91568   0.91711   0.92222   0.92953
 Alpha virt. eigenvalues --    0.93541   0.93624   0.95668   0.95669   0.95946
 Alpha virt. eigenvalues --    0.96091   0.97197   0.97761   0.98067   0.98342
 Alpha virt. eigenvalues --    0.98432   1.00042   1.00291   1.01683   1.02087
 Alpha virt. eigenvalues --    1.02946   1.03155   1.03974   1.06530   1.07316
 Alpha virt. eigenvalues --    1.09339   1.09875   1.11143   1.11381   1.13778
 Alpha virt. eigenvalues --    1.15032   1.15935   1.16266   1.16918   1.18528
 Alpha virt. eigenvalues --    1.18647   1.19386   1.20079   1.23620   1.24132
 Alpha virt. eigenvalues --    1.24538   1.25330   1.27112   1.27345   1.27350
 Alpha virt. eigenvalues --    1.28950   1.29169   1.30023   1.32752   1.33331
 Alpha virt. eigenvalues --    1.33775   1.35992   1.36141   1.37003   1.38886
 Alpha virt. eigenvalues --    1.40336   1.41915   1.42729   1.42794   1.43804
 Alpha virt. eigenvalues --    1.44957   1.45371   1.45594   1.46330   1.47895
 Alpha virt. eigenvalues --    1.47937   1.49271   1.49834   1.49859   1.51164
 Alpha virt. eigenvalues --    1.51389   1.51583   1.53253   1.53802   1.57177
 Alpha virt. eigenvalues --    1.57223   1.59206   1.62216   1.65816   1.66312
 Alpha virt. eigenvalues --    1.66336   1.70382   1.72454   1.72658   1.77475
 Alpha virt. eigenvalues --    1.77695   1.78627   1.79600   1.79617   1.82165
 Alpha virt. eigenvalues --    1.82813   1.85925   1.86642   1.86809   1.87483
 Alpha virt. eigenvalues --    1.87746   1.89325   1.89669   1.91535   1.91643
 Alpha virt. eigenvalues --    1.93342   1.94968   1.95268   1.96546   1.97013
 Alpha virt. eigenvalues --    1.98011   1.98066   1.98370   1.99085   1.99409
 Alpha virt. eigenvalues --    1.99741   2.00063   2.01215   2.02713   2.04364
 Alpha virt. eigenvalues --    2.06986   2.07301   2.07890   2.09204   2.11002
 Alpha virt. eigenvalues --    2.12865   2.13865   2.14344   2.15343   2.15626
 Alpha virt. eigenvalues --    2.16511   2.16627   2.16913   2.19264   2.19973
 Alpha virt. eigenvalues --    2.20567   2.21645   2.22130   2.22510   2.23412
 Alpha virt. eigenvalues --    2.25122   2.25849   2.25860   2.27471   2.27910
 Alpha virt. eigenvalues --    2.28034   2.28259   2.28513   2.28869   2.29017
 Alpha virt. eigenvalues --    2.32863   2.34599   2.39433   2.39492   2.40440
 Alpha virt. eigenvalues --    2.40622   2.44437   2.44963   2.45628   2.46757
 Alpha virt. eigenvalues --    2.51622   2.51634   2.52245   2.57519   2.58789
 Alpha virt. eigenvalues --    2.58873   2.59564   2.59901   2.61633   2.61994
 Alpha virt. eigenvalues --    2.64390   2.65064   2.66512   2.68000   2.69100
 Alpha virt. eigenvalues --    2.69774   2.70425   2.72609   2.73017   2.74904
 Alpha virt. eigenvalues --    2.75356   2.75417   2.77184   2.78826   2.79437
 Alpha virt. eigenvalues --    2.79957   2.83355   2.85771   2.88587   2.88635
 Alpha virt. eigenvalues --    2.93936   2.93968   2.96978   2.99562   3.00461
 Alpha virt. eigenvalues --    3.02279   3.06283   3.06896   3.15289   3.19339
 Alpha virt. eigenvalues --    3.20034   3.30180   3.39505   3.47169   3.47590
 Alpha virt. eigenvalues --    3.52873   3.53142   3.61367   5.66932   5.67272
 Alpha virt. eigenvalues --    5.67568   5.68406   5.68984   5.69898   5.71930
 Alpha virt. eigenvalues --   45.82374  45.95880  46.01886  63.11803
  Beta  occ. eigenvalues --  -14.45794 -14.45794 -14.45323 -14.45323 -10.28330
  Beta  occ. eigenvalues --  -10.28329 -10.27671 -10.27671 -10.27435 -10.27434
  Beta  occ. eigenvalues --  -10.27312 -10.27312 -10.25335 -10.25334 -10.24098
  Beta  occ. eigenvalues --  -10.24098 -10.23915 -10.23915 -10.23475 -10.23474
  Beta  occ. eigenvalues --  -10.23418 -10.23418 -10.21467 -10.21464 -10.20992
  Beta  occ. eigenvalues --  -10.19177  -3.82897  -2.34614  -2.34602  -2.30821
  Beta  occ. eigenvalues --   -1.05965  -1.05902  -0.97196  -0.96875  -0.88338
  Beta  occ. eigenvalues --   -0.88073  -0.85305  -0.80432  -0.78884  -0.78110
  Beta  occ. eigenvalues --   -0.77951  -0.75608  -0.75061  -0.73169  -0.71848
  Beta  occ. eigenvalues --   -0.66627  -0.65201  -0.64504  -0.64254  -0.62704
  Beta  occ. eigenvalues --   -0.61526  -0.59028  -0.57279  -0.56782  -0.54201
  Beta  occ. eigenvalues --   -0.53302  -0.52200  -0.49769  -0.49711  -0.49165
  Beta  occ. eigenvalues --   -0.48668  -0.47877  -0.47498  -0.46679  -0.46272
  Beta  occ. eigenvalues --   -0.45820  -0.45404  -0.45012  -0.44698  -0.44158
  Beta  occ. eigenvalues --   -0.42523  -0.41880  -0.41168  -0.38675  -0.38457
  Beta  occ. eigenvalues --   -0.38382  -0.37546  -0.36960  -0.36848  -0.36688
  Beta  occ. eigenvalues --   -0.34806  -0.34682  -0.34512  -0.33937  -0.31777
  Beta  occ. eigenvalues --   -0.28860  -0.26754  -0.25934  -0.24752  -0.24476
  Beta  occ. eigenvalues --   -0.21406  -0.20816  -0.20443  -0.19948  -0.16358
  Beta  occ. eigenvalues --   -0.15126  -0.14654
  Beta virt. eigenvalues --   -0.04398  -0.02466  -0.00611  -0.00137   0.00907
  Beta virt. eigenvalues --    0.01317   0.01965   0.03230   0.05399   0.05926
  Beta virt. eigenvalues --    0.06082   0.07337   0.08898   0.09294   0.10085
  Beta virt. eigenvalues --    0.10394   0.12655   0.13106   0.14238   0.14276
  Beta virt. eigenvalues --    0.15316   0.15582   0.15919   0.16013   0.16538
  Beta virt. eigenvalues --    0.16813   0.17132   0.17650   0.17939   0.18314
  Beta virt. eigenvalues --    0.19240   0.19272   0.19784   0.20379   0.22226
  Beta virt. eigenvalues --    0.22447   0.22478   0.22760   0.22924   0.23884
  Beta virt. eigenvalues --    0.25900   0.25935   0.26607   0.27533   0.27919
  Beta virt. eigenvalues --    0.28572   0.29360   0.29518   0.30510   0.31056
  Beta virt. eigenvalues --    0.31743   0.33277   0.33747   0.34514   0.34667
  Beta virt. eigenvalues --    0.36327   0.37755   0.38153   0.39484   0.39609
  Beta virt. eigenvalues --    0.41601   0.43242   0.44704   0.45018   0.46058
  Beta virt. eigenvalues --    0.47292   0.47946   0.50133   0.51289   0.51796
  Beta virt. eigenvalues --    0.52802   0.53500   0.53716   0.56019   0.56043
  Beta virt. eigenvalues --    0.56833   0.56964   0.57048   0.58122   0.58405
  Beta virt. eigenvalues --    0.58622   0.59070   0.59347   0.60158   0.61466
  Beta virt. eigenvalues --    0.61496   0.62000   0.63044   0.63155   0.63168
  Beta virt. eigenvalues --    0.63345   0.63406   0.63469   0.63812   0.65149
  Beta virt. eigenvalues --    0.65246   0.66177   0.66585   0.66856   0.67058
  Beta virt. eigenvalues --    0.67608   0.68401   0.68433   0.70174   0.70869
  Beta virt. eigenvalues --    0.72253   0.73590   0.73931   0.75800   0.76249
  Beta virt. eigenvalues --    0.76562   0.77158   0.78200   0.79573   0.80045
  Beta virt. eigenvalues --    0.81000   0.81956   0.82752   0.83293   0.83844
  Beta virt. eigenvalues --    0.84337   0.84454   0.85053   0.86606   0.86768
  Beta virt. eigenvalues --    0.87057   0.87339   0.87642   0.89851   0.89937
  Beta virt. eigenvalues --    0.90503   0.91568   0.91711   0.92222   0.92953
  Beta virt. eigenvalues --    0.93541   0.93624   0.95668   0.95669   0.95946
  Beta virt. eigenvalues --    0.96091   0.97197   0.97761   0.98067   0.98342
  Beta virt. eigenvalues --    0.98432   1.00042   1.00291   1.01683   1.02087
  Beta virt. eigenvalues --    1.02946   1.03155   1.03974   1.06530   1.07316
  Beta virt. eigenvalues --    1.09339   1.09875   1.11143   1.11381   1.13778
  Beta virt. eigenvalues --    1.15032   1.15935   1.16266   1.16918   1.18528
  Beta virt. eigenvalues --    1.18647   1.19386   1.20079   1.23620   1.24132
  Beta virt. eigenvalues --    1.24538   1.25330   1.27112   1.27345   1.27350
  Beta virt. eigenvalues --    1.28950   1.29169   1.30023   1.32752   1.33331
  Beta virt. eigenvalues --    1.33775   1.35992   1.36141   1.37003   1.38886
  Beta virt. eigenvalues --    1.40336   1.41915   1.42729   1.42794   1.43804
  Beta virt. eigenvalues --    1.44957   1.45371   1.45594   1.46330   1.47895
  Beta virt. eigenvalues --    1.47937   1.49271   1.49834   1.49859   1.51164
  Beta virt. eigenvalues --    1.51389   1.51583   1.53253   1.53802   1.57177
  Beta virt. eigenvalues --    1.57223   1.59206   1.62216   1.65816   1.66312
  Beta virt. eigenvalues --    1.66336   1.70382   1.72454   1.72658   1.77475
  Beta virt. eigenvalues --    1.77695   1.78627   1.79600   1.79617   1.82165
  Beta virt. eigenvalues --    1.82813   1.85925   1.86642   1.86809   1.87483
  Beta virt. eigenvalues --    1.87746   1.89325   1.89669   1.91535   1.91643
  Beta virt. eigenvalues --    1.93342   1.94968   1.95268   1.96546   1.97013
  Beta virt. eigenvalues --    1.98011   1.98066   1.98370   1.99085   1.99409
  Beta virt. eigenvalues --    1.99741   2.00063   2.01215   2.02713   2.04364
  Beta virt. eigenvalues --    2.06986   2.07301   2.07890   2.09204   2.11002
  Beta virt. eigenvalues --    2.12865   2.13865   2.14344   2.15343   2.15626
  Beta virt. eigenvalues --    2.16511   2.16627   2.16913   2.19264   2.19973
  Beta virt. eigenvalues --    2.20567   2.21645   2.22130   2.22510   2.23412
  Beta virt. eigenvalues --    2.25122   2.25849   2.25860   2.27471   2.27910
  Beta virt. eigenvalues --    2.28034   2.28259   2.28513   2.28869   2.29017
  Beta virt. eigenvalues --    2.32863   2.34599   2.39433   2.39492   2.40440
  Beta virt. eigenvalues --    2.40622   2.44437   2.44963   2.45628   2.46757
  Beta virt. eigenvalues --    2.51622   2.51634   2.52245   2.57519   2.58789
  Beta virt. eigenvalues --    2.58873   2.59564   2.59901   2.61633   2.61994
  Beta virt. eigenvalues --    2.64390   2.65064   2.66512   2.68000   2.69100
  Beta virt. eigenvalues --    2.69774   2.70425   2.72609   2.73017   2.74904
  Beta virt. eigenvalues --    2.75356   2.75417   2.77184   2.78826   2.79437
  Beta virt. eigenvalues --    2.79957   2.83355   2.85771   2.88587   2.88635
  Beta virt. eigenvalues --    2.93936   2.93968   2.96978   2.99562   3.00461
  Beta virt. eigenvalues --    3.02279   3.06283   3.06896   3.15289   3.19339
  Beta virt. eigenvalues --    3.20034   3.30180   3.39505   3.47169   3.47590
  Beta virt. eigenvalues --    3.52873   3.53142   3.61367   5.66932   5.67272
  Beta virt. eigenvalues --    5.67568   5.68406   5.68984   5.69898   5.71930
  Beta virt. eigenvalues --   45.82374  45.95880  46.01886  63.11803
          Condensed to atoms (all electrons):
               1          2          3          4          5          6
     1  C    5.100230   0.526840  -0.056435  -0.066885  -0.056436   0.526843
     2  C    0.526840   4.613722   0.515493  -0.021939  -0.042587  -0.020975
     3  C   -0.056435   0.515493   5.060604   0.539348  -0.026657  -0.042588
     4  C   -0.066885  -0.021939   0.539348   4.909598   0.539340  -0.021939
     5  C   -0.056436  -0.042587  -0.026657   0.539340   5.060616   0.515495
     6  C    0.526843  -0.020975  -0.042588  -0.021939   0.515495   4.613715
     7  H    0.007367  -0.041174   0.336053  -0.041241   0.004018   0.001029
     8  H    0.001634   0.002939  -0.036506   0.365940  -0.036507   0.002939
     9  H    0.007367   0.001029   0.004018  -0.041240   0.336054  -0.041174
    10  C    0.005366  -0.000041   0.000004   0.000117  -0.004471  -0.044957
    11  C    0.004035   0.001801  -0.000032   0.000035   0.002981  -0.060757
    12  C   -0.000598   0.000002  -0.000000   0.000001   0.000099   0.006988
    13  C    0.000142   0.000000  -0.000001   0.000046   0.002006  -0.003145
    14  C    0.000003  -0.000000   0.000000  -0.000000   0.000003  -0.000024
    15  C    0.000002  -0.000000   0.000000  -0.000001   0.000079   0.000062
    16  H   -0.000021   0.000001   0.000001   0.000084   0.000067   0.000875
    17  C   -0.000000   0.000000   0.000000   0.000000  -0.000001  -0.000002
    18  H   -0.000000   0.000000   0.000000   0.000000  -0.000000   0.000002
    19  H   -0.000000   0.000000  -0.000000   0.000000   0.000001  -0.000003
    20  H    0.000000  -0.000000   0.000000  -0.000000  -0.000000  -0.000000
    21  C    0.005367  -0.044959  -0.004471   0.000117   0.000004  -0.000041
    22  C    0.004036  -0.060758   0.002981   0.000035  -0.000032   0.001801
    23  C   -0.000598   0.006988   0.000099   0.000001  -0.000000   0.000002
    24  C    0.000142  -0.003144   0.002005   0.000046  -0.000001   0.000000
    25  C    0.000003  -0.000024   0.000003  -0.000000   0.000000  -0.000000
    26  C    0.000002   0.000062   0.000079  -0.000001   0.000000  -0.000000
    27  H   -0.000021   0.000875   0.000067   0.000084   0.000001   0.000001
    28  C   -0.000000  -0.000002  -0.000001   0.000000   0.000000   0.000000
    29  H   -0.000000   0.000002  -0.000000   0.000000   0.000000   0.000000
    30  H   -0.000000  -0.000003   0.000001   0.000000  -0.000000   0.000000
    31  H    0.000000  -0.000000  -0.000000  -0.000000   0.000000  -0.000000
    32  N   -0.042867   0.245320  -0.079448   0.004687  -0.000110   0.006146
    33  N    0.001589   0.006115  -0.000148   0.000002   0.000000  -0.000034
    34  N   -0.042867   0.006146  -0.000110   0.004687  -0.079449   0.245320
    35  N    0.001589  -0.000034   0.000000   0.000002  -0.000148   0.006114
    36  C   -0.000009   0.000000   0.000000  -0.000000   0.000002  -0.000026
    37  H   -0.000001  -0.000000   0.000000   0.000000  -0.000000   0.000003
    38  H   -0.000001  -0.000000   0.000000   0.000000  -0.000000   0.000003
    39  H   -0.000011   0.000001   0.000000  -0.000000   0.000000  -0.000006
    40  C   -0.000009  -0.000026   0.000002  -0.000000   0.000000   0.000000
    41  H   -0.000001   0.000003  -0.000000   0.000000   0.000000  -0.000000
    42  H   -0.000001   0.000003  -0.000000   0.000000   0.000000  -0.000000
    43  H   -0.000011  -0.000006   0.000000  -0.000000   0.000000   0.000001
    44  Co   0.251706  -0.054723   0.007282   0.002910   0.007282  -0.054723
               7          8          9         10         11         12
     1  C    0.007367   0.001634   0.007367   0.005366   0.004035  -0.000598
     2  C   -0.041174   0.002939   0.001029  -0.000041   0.001801   0.000002
     3  C    0.336053  -0.036506   0.004018   0.000004  -0.000032  -0.000000
     4  C   -0.041241   0.365940  -0.041240   0.000117   0.000035   0.000001
     5  C    0.004018  -0.036507   0.336054  -0.004471   0.002981   0.000099
     6  C    0.001029   0.002939  -0.041174  -0.044957  -0.060757   0.006988
     7  H    0.581529  -0.004091  -0.000078  -0.000000  -0.000001   0.000000
     8  H   -0.004091   0.551156  -0.004091  -0.000002   0.000001  -0.000000
     9  H   -0.000078  -0.004091   0.581525   0.000437  -0.000198  -0.000049
    10  C   -0.000000  -0.000002   0.000437   4.641984  -0.066497   0.515982
    11  C   -0.000001   0.000001  -0.000198  -0.066497   4.792018  -0.054198
    12  C    0.000000  -0.000000  -0.000049   0.515982  -0.054198   4.661446
    13  C   -0.000000   0.000002  -0.000486   0.539292   0.004356  -0.056225
    14  C   -0.000000   0.000000  -0.000000  -0.049451   0.004827   0.533618
    15  C   -0.000000   0.000000   0.000115  -0.005646  -0.000052  -0.038252
    16  H    0.000000  -0.000010   0.006677  -0.033139  -0.000157   0.003743
    17  C    0.000000  -0.000000   0.000002  -0.039697  -0.000057  -0.008882
    18  H    0.000000  -0.000000  -0.000000   0.004076  -0.000208  -0.037880
    19  H    0.000000   0.000000  -0.000008   0.001871   0.000003   0.000943
    20  H   -0.000000  -0.000000   0.000000   0.000920   0.000003   0.002389
    21  C    0.000437  -0.000002  -0.000000  -0.000000  -0.000006   0.000000
    22  C   -0.000198   0.000001  -0.000001  -0.000006  -0.011815  -0.000001
    23  C   -0.000049  -0.000000   0.000000   0.000000  -0.000001  -0.000000
    24  C   -0.000487   0.000002  -0.000000   0.000000   0.000000   0.000000
    25  C   -0.000000   0.000000  -0.000000  -0.000000   0.000000   0.000000
    26  C    0.000115   0.000000  -0.000000  -0.000000  -0.000000   0.000000
    27  H    0.006678  -0.000010   0.000000   0.000000   0.000000  -0.000000
    28  C    0.000002  -0.000000   0.000000   0.000000  -0.000000  -0.000000
    29  H   -0.000000  -0.000000   0.000000   0.000000   0.000000  -0.000000
    30  H   -0.000008   0.000000   0.000000   0.000000   0.000000  -0.000000
    31  H    0.000000  -0.000000  -0.000000   0.000000   0.000000   0.000000
    32  N   -0.003260  -0.000093   0.000010   0.000000   0.000241   0.000000
    33  N   -0.000000  -0.000000  -0.000000   0.000000   0.000026   0.000000
    34  N    0.000010  -0.000093  -0.003260   0.255176   0.351061  -0.040871
    35  N   -0.000000  -0.000000  -0.000000  -0.047677   0.301952   0.261685
    36  C   -0.000000   0.000000  -0.000000   0.005475  -0.045184  -0.048321
    37  H    0.000000  -0.000000   0.000000  -0.000136   0.000577  -0.001050
    38  H    0.000000  -0.000000   0.000000  -0.000137   0.000571  -0.001046
    39  H    0.000000   0.000000   0.000000   0.000018   0.000578   0.002611
    40  C   -0.000000   0.000000  -0.000000  -0.000000   0.000013   0.000000
    41  H    0.000000  -0.000000   0.000000  -0.000000  -0.000000  -0.000000
    42  H    0.000000  -0.000000   0.000000  -0.000000  -0.000000  -0.000000
    43  H    0.000000   0.000000   0.000000  -0.000000  -0.000002  -0.000000
    44  Co  -0.000803   0.000112  -0.000803   0.007466   0.365112   0.005826
              13         14         15         16         17         18
     1  C    0.000142   0.000003   0.000002  -0.000021  -0.000000  -0.000000
     2  C    0.000000  -0.000000  -0.000000   0.000001   0.000000   0.000000
     3  C   -0.000001   0.000000   0.000000   0.000001   0.000000   0.000000
     4  C    0.000046  -0.000000  -0.000001   0.000084   0.000000   0.000000
     5  C    0.002006   0.000003   0.000079   0.000067  -0.000001  -0.000000
     6  C   -0.003145  -0.000024   0.000062   0.000875  -0.000002   0.000002
     7  H   -0.000000  -0.000000  -0.000000   0.000000   0.000000   0.000000
     8  H    0.000002   0.000000   0.000000  -0.000010  -0.000000  -0.000000
     9  H   -0.000486  -0.000000   0.000115   0.006677   0.000002  -0.000000
    10  C    0.539292  -0.049451  -0.005646  -0.033139  -0.039697   0.004076
    11  C    0.004356   0.004827  -0.000052  -0.000157  -0.000057  -0.000208
    12  C   -0.056225   0.533618  -0.038252   0.003743  -0.008882  -0.037880
    13  C    5.016853  -0.044779   0.511269   0.354829  -0.036863   0.000277
    14  C   -0.044779   5.027661  -0.036014   0.000426   0.518086   0.362113
    15  C    0.511269  -0.036014   4.897743  -0.035309   0.554075   0.003768
    16  H    0.354829   0.000426  -0.035309   0.509246   0.003609   0.000013
    17  C   -0.036863   0.518086   0.554075   0.003609   4.891093  -0.034962
    18  H    0.000277   0.362113   0.003768   0.000013  -0.034962   0.532480
    19  H   -0.035404   0.003836   0.368997  -0.003872  -0.035678  -0.000138
    20  H    0.004063  -0.037190  -0.036512  -0.000146   0.369102  -0.004198
    21  C    0.000000  -0.000000  -0.000000   0.000000   0.000000   0.000000
    22  C    0.000000   0.000000  -0.000000   0.000000  -0.000000   0.000000
    23  C    0.000000   0.000000   0.000000  -0.000000  -0.000000  -0.000000
    24  C    0.000000  -0.000000   0.000000   0.000000   0.000000   0.000000
    25  C   -0.000000  -0.000000   0.000000  -0.000000  -0.000000   0.000000
    26  C    0.000000   0.000000  -0.000000  -0.000000  -0.000000   0.000000
    27  H    0.000000  -0.000000  -0.000000   0.000000   0.000000  -0.000000
    28  C    0.000000  -0.000000  -0.000000   0.000000   0.000000   0.000000
    29  H    0.000000   0.000000   0.000000  -0.000000   0.000000  -0.000000
    30  H   -0.000000  -0.000000   0.000000  -0.000000   0.000000   0.000000
    31  H   -0.000000   0.000000   0.000000  -0.000000   0.000000   0.000000
    32  N   -0.000000  -0.000000  -0.000000   0.000000   0.000000  -0.000000
    33  N    0.000000  -0.000000   0.000000   0.000000   0.000000  -0.000000
    34  N   -0.076474   0.009580   0.005231  -0.005118  -0.000171  -0.000101
    35  N    0.009545  -0.082529  -0.000192  -0.000095   0.005438  -0.007497
    36  C   -0.000115  -0.002722   0.000009   0.000003  -0.000111   0.004377
    37  H   -0.000009   0.002506  -0.000001  -0.000000  -0.000004   0.000518
    38  H   -0.000009   0.002503  -0.000001  -0.000000  -0.000004   0.000517
    39  H    0.000005   0.000005  -0.000000  -0.000000   0.000002  -0.000034
    40  C    0.000000   0.000000  -0.000000   0.000000   0.000000  -0.000000
    41  H   -0.000000  -0.000000   0.000000  -0.000000   0.000000  -0.000000
    42  H   -0.000000  -0.000000   0.000000  -0.000000   0.000000  -0.000000
    43  H   -0.000000   0.000000  -0.000000   0.000000  -0.000000   0.000000
    44  Co  -0.001281  -0.001416   0.000172   0.000050   0.000160   0.000028
              19         20         21         22         23         24
     1  C   -0.000000   0.000000   0.005367   0.004036  -0.000598   0.000142
     2  C    0.000000  -0.000000  -0.044959  -0.060758   0.006988  -0.003144
     3  C   -0.000000   0.000000  -0.004471   0.002981   0.000099   0.002005
     4  C    0.000000  -0.000000   0.000117   0.000035   0.000001   0.000046
     5  C    0.000001  -0.000000   0.000004  -0.000032  -0.000000  -0.000001
     6  C   -0.000003  -0.000000  -0.000041   0.001801   0.000002   0.000000
     7  H    0.000000  -0.000000   0.000437  -0.000198  -0.000049  -0.000487
     8  H    0.000000  -0.000000  -0.000002   0.000001  -0.000000   0.000002
     9  H   -0.000008   0.000000  -0.000000  -0.000001   0.000000  -0.000000
    10  C    0.001871   0.000920  -0.000000  -0.000006   0.000000   0.000000
    11  C    0.000003   0.000003  -0.000006  -0.011815  -0.000001   0.000000
    12  C    0.000943   0.002389   0.000000  -0.000001  -0.000000   0.000000
    13  C   -0.035404   0.004063   0.000000   0.000000   0.000000   0.000000
    14  C    0.003836  -0.037190  -0.000000   0.000000   0.000000  -0.000000
    15  C    0.368997  -0.036512  -0.000000  -0.000000   0.000000   0.000000
    16  H   -0.003872  -0.000146   0.000000   0.000000  -0.000000   0.000000
    17  C   -0.035678   0.369102   0.000000  -0.000000  -0.000000   0.000000
    18  H   -0.000138  -0.004198   0.000000   0.000000  -0.000000   0.000000
    19  H    0.529541  -0.004544   0.000000   0.000000  -0.000000  -0.000000
    20  H   -0.004544   0.535292   0.000000   0.000000   0.000000  -0.000000
    21  C    0.000000   0.000000   4.642015  -0.066498   0.515977   0.539289
    22  C    0.000000   0.000000  -0.066498   4.792027  -0.054196   0.004355
    23  C   -0.000000   0.000000   0.515977  -0.054196   4.661410  -0.056222
    24  C   -0.000000  -0.000000   0.539289   0.004355  -0.056222   5.016828
    25  C   -0.000000   0.000000  -0.049453   0.004827   0.533624  -0.044780
    26  C    0.000000   0.000000  -0.005647  -0.000052  -0.038253   0.511279
    27  H   -0.000000  -0.000000  -0.033140  -0.000157   0.003743   0.354829
    28  C    0.000000   0.000000  -0.039697  -0.000057  -0.008880  -0.036864
    29  H    0.000000   0.000000   0.004076  -0.000208  -0.037879   0.000277
    30  H    0.000000   0.000000   0.001871   0.000003   0.000943  -0.035404
    31  H    0.000000   0.000000   0.000920   0.000003   0.002389   0.004063
    32  N    0.000000   0.000000   0.255179   0.351052  -0.040872  -0.076470
    33  N   -0.000000  -0.000000  -0.047676   0.301950   0.261683   0.009545
    34  N   -0.000094   0.000003   0.000000   0.000241   0.000000  -0.000000
    35  N    0.000004  -0.000105   0.000000   0.000026   0.000000   0.000000
    36  C   -0.000000  -0.000002  -0.000000   0.000013   0.000000   0.000000
    37  H   -0.000000  -0.000000  -0.000000  -0.000000  -0.000000  -0.000000
    38  H   -0.000000  -0.000000  -0.000000  -0.000000  -0.000000  -0.000000
    39  H   -0.000000  -0.000000  -0.000000  -0.000002  -0.000000  -0.000000
    40  C    0.000000  -0.000000   0.005475  -0.045184  -0.048322  -0.000115
    41  H   -0.000000   0.000000  -0.000137   0.000571  -0.001046  -0.000009
    42  H   -0.000000   0.000000  -0.000136   0.000578  -0.001050  -0.000009
    43  H   -0.000000   0.000000   0.000018   0.000578   0.002611   0.000005
    44  Co   0.000013  -0.000014   0.007466   0.365113   0.005826  -0.001281
              25         26         27         28         29         30
     1  C    0.000003   0.000002  -0.000021  -0.000000  -0.000000  -0.000000
     2  C   -0.000024   0.000062   0.000875  -0.000002   0.000002  -0.000003
     3  C    0.000003   0.000079   0.000067  -0.000001  -0.000000   0.000001
     4  C   -0.000000  -0.000001   0.000084   0.000000   0.000000   0.000000
     5  C    0.000000   0.000000   0.000001   0.000000   0.000000  -0.000000
     6  C   -0.000000  -0.000000   0.000001   0.000000   0.000000   0.000000
     7  H   -0.000000   0.000115   0.006678   0.000002  -0.000000  -0.000008
     8  H    0.000000   0.000000  -0.000010  -0.000000  -0.000000   0.000000
     9  H   -0.000000  -0.000000   0.000000   0.000000   0.000000   0.000000
    10  C   -0.000000  -0.000000   0.000000   0.000000   0.000000   0.000000
    11  C    0.000000  -0.000000   0.000000  -0.000000   0.000000   0.000000
    12  C    0.000000   0.000000  -0.000000  -0.000000  -0.000000  -0.000000
    13  C   -0.000000   0.000000   0.000000   0.000000   0.000000  -0.000000
    14  C   -0.000000   0.000000  -0.000000  -0.000000   0.000000  -0.000000
    15  C    0.000000  -0.000000  -0.000000  -0.000000   0.000000   0.000000
    16  H   -0.000000  -0.000000   0.000000   0.000000  -0.000000  -0.000000
    17  C   -0.000000  -0.000000   0.000000   0.000000   0.000000   0.000000
    18  H    0.000000   0.000000  -0.000000   0.000000  -0.000000   0.000000
    19  H   -0.000000   0.000000  -0.000000   0.000000   0.000000   0.000000
    20  H    0.000000   0.000000  -0.000000   0.000000   0.000000   0.000000
    21  C   -0.049453  -0.005647  -0.033140  -0.039697   0.004076   0.001871
    22  C    0.004827  -0.000052  -0.000157  -0.000057  -0.000208   0.000003
    23  C    0.533624  -0.038253   0.003743  -0.008880  -0.037879   0.000943
    24  C   -0.044780   0.511279   0.354829  -0.036864   0.000277  -0.035404
    25  C    5.027689  -0.036012   0.000426   0.518077   0.362110   0.003836
    26  C   -0.036012   4.897740  -0.035309   0.554072   0.003769   0.368995
    27  H    0.000426  -0.035309   0.509250   0.003609   0.000013  -0.003872
    28  C    0.518077   0.554072   0.003609   4.891101  -0.034961  -0.035678
    29  H    0.362110   0.003769   0.000013  -0.034961   0.532484  -0.000138
    30  H    0.003836   0.368995  -0.003872  -0.035678  -0.000138   0.529546
    31  H   -0.037189  -0.036512  -0.000146   0.369105  -0.004198  -0.004543
    32  N    0.009581   0.005231  -0.005118  -0.000171  -0.000101  -0.000094
    33  N   -0.082535  -0.000192  -0.000095   0.005438  -0.007498   0.000004
    34  N   -0.000000  -0.000000   0.000000   0.000000  -0.000000   0.000000
    35  N   -0.000000   0.000000   0.000000   0.000000  -0.000000  -0.000000
    36  C    0.000000  -0.000000   0.000000   0.000000  -0.000000   0.000000
    37  H   -0.000000   0.000000  -0.000000   0.000000  -0.000000  -0.000000
    38  H   -0.000000   0.000000  -0.000000   0.000000  -0.000000  -0.000000
    39  H    0.000000  -0.000000   0.000000  -0.000000   0.000000  -0.000000
    40  C   -0.002722   0.000009   0.000003  -0.000111   0.004378  -0.000000
    41  H    0.002503  -0.000001  -0.000000  -0.000004   0.000517  -0.000000
    42  H    0.002506  -0.000001  -0.000000  -0.000004   0.000518  -0.000000
    43  H    0.000005  -0.000000  -0.000000   0.000002  -0.000034  -0.000000
    44  Co  -0.001416   0.000172   0.000050   0.000160   0.000028   0.000013
              31         32         33         34         35         36
     1  C    0.000000  -0.042867   0.001589  -0.042867   0.001589  -0.000009
     2  C   -0.000000   0.245320   0.006115   0.006146  -0.000034   0.000000
     3  C   -0.000000  -0.079448  -0.000148  -0.000110   0.000000   0.000000
     4  C   -0.000000   0.004687   0.000002   0.004687   0.000002  -0.000000
     5  C    0.000000  -0.000110   0.000000  -0.079449  -0.000148   0.000002
     6  C   -0.000000   0.006146  -0.000034   0.245320   0.006114  -0.000026
     7  H    0.000000  -0.003260  -0.000000   0.000010  -0.000000  -0.000000
     8  H   -0.000000  -0.000093  -0.000000  -0.000093  -0.000000   0.000000
     9  H   -0.000000   0.000010  -0.000000  -0.003260  -0.000000  -0.000000
    10  C    0.000000   0.000000   0.000000   0.255176  -0.047677   0.005475
    11  C    0.000000   0.000241   0.000026   0.351061   0.301952  -0.045184
    12  C    0.000000   0.000000   0.000000  -0.040871   0.261685  -0.048321
    13  C   -0.000000  -0.000000   0.000000  -0.076474   0.009545  -0.000115
    14  C    0.000000  -0.000000  -0.000000   0.009580  -0.082529  -0.002722
    15  C    0.000000  -0.000000   0.000000   0.005231  -0.000192   0.000009
    16  H   -0.000000   0.000000   0.000000  -0.005118  -0.000095   0.000003
    17  C    0.000000   0.000000   0.000000  -0.000171   0.005438  -0.000111
    18  H    0.000000  -0.000000  -0.000000  -0.000101  -0.007497   0.004377
    19  H    0.000000   0.000000  -0.000000  -0.000094   0.000004  -0.000000
    20  H    0.000000   0.000000  -0.000000   0.000003  -0.000105  -0.000002
    21  C    0.000920   0.255179  -0.047676   0.000000   0.000000  -0.000000
    22  C    0.000003   0.351052   0.301950   0.000241   0.000026   0.000013
    23  C    0.002389  -0.040872   0.261683   0.000000   0.000000   0.000000
    24  C    0.004063  -0.076470   0.009545  -0.000000   0.000000   0.000000
    25  C   -0.037189   0.009581  -0.082535  -0.000000  -0.000000   0.000000
    26  C   -0.036512   0.005231  -0.000192  -0.000000   0.000000  -0.000000
    27  H   -0.000146  -0.005118  -0.000095   0.000000   0.000000   0.000000
    28  C    0.369105  -0.000171   0.005438   0.000000   0.000000   0.000000
    29  H   -0.004198  -0.000101  -0.007498  -0.000000  -0.000000  -0.000000
    30  H   -0.004543  -0.000094   0.000004   0.000000  -0.000000   0.000000
    31  H    0.535286   0.000003  -0.000105   0.000000  -0.000000  -0.000000
    32  N    0.000003   7.224990  -0.059547  -0.000029   0.000000   0.000000
    33  N   -0.000105  -0.059547   7.061588   0.000000  -0.000000  -0.000000
    34  N    0.000000  -0.000029   0.000000   7.224994  -0.059547   0.004559
    35  N   -0.000000   0.000000  -0.000000  -0.059547   7.061566   0.300689
    36  C   -0.000000   0.000000  -0.000000   0.004559   0.300689   5.061328
    37  H    0.000000   0.000000   0.000000  -0.000066  -0.041768   0.377188
    38  H    0.000000   0.000000   0.000000  -0.000066  -0.041772   0.377194
    39  H    0.000000  -0.000000   0.000001   0.000159  -0.031967   0.375892
    40  C   -0.000002   0.004559   0.300688   0.000000  -0.000000   0.000000
    41  H   -0.000000  -0.000066  -0.041771   0.000000   0.000000  -0.000000
    42  H   -0.000000  -0.000066  -0.041768   0.000000   0.000000  -0.000000
    43  H   -0.000000   0.000159  -0.031967  -0.000000   0.000001  -0.000001
    44  Co  -0.000014  -0.073217  -0.055024  -0.073219  -0.055025  -0.007650
              37         38         39         40         41         42
     1  C   -0.000001  -0.000001  -0.000011  -0.000009  -0.000001  -0.000001
     2  C   -0.000000  -0.000000   0.000001  -0.000026   0.000003   0.000003
     3  C    0.000000   0.000000   0.000000   0.000002  -0.000000  -0.000000
     4  C    0.000000   0.000000  -0.000000  -0.000000   0.000000   0.000000
     5  C   -0.000000  -0.000000   0.000000   0.000000   0.000000   0.000000
     6  C    0.000003   0.000003  -0.000006   0.000000  -0.000000  -0.000000
     7  H    0.000000   0.000000   0.000000  -0.000000   0.000000   0.000000
     8  H   -0.000000  -0.000000   0.000000   0.000000  -0.000000  -0.000000
     9  H    0.000000   0.000000   0.000000  -0.000000   0.000000   0.000000
    10  C   -0.000136  -0.000137   0.000018  -0.000000  -0.000000  -0.000000
    11  C    0.000577   0.000571   0.000578   0.000013  -0.000000  -0.000000
    12  C   -0.001050  -0.001046   0.002611   0.000000  -0.000000  -0.000000
    13  C   -0.000009  -0.000009   0.000005   0.000000  -0.000000  -0.000000
    14  C    0.002506   0.002503   0.000005   0.000000  -0.000000  -0.000000
    15  C   -0.000001  -0.000001  -0.000000  -0.000000   0.000000   0.000000
    16  H   -0.000000  -0.000000  -0.000000   0.000000  -0.000000  -0.000000
    17  C   -0.000004  -0.000004   0.000002   0.000000   0.000000   0.000000
    18  H    0.000518   0.000517  -0.000034  -0.000000  -0.000000  -0.000000
    19  H   -0.000000  -0.000000  -0.000000   0.000000  -0.000000  -0.000000
    20  H   -0.000000  -0.000000  -0.000000  -0.000000   0.000000   0.000000
    21  C   -0.000000  -0.000000  -0.000000   0.005475  -0.000137  -0.000136
    22  C   -0.000000  -0.000000  -0.000002  -0.045184   0.000571   0.000578
    23  C   -0.000000  -0.000000  -0.000000  -0.048322  -0.001046  -0.001050
    24  C   -0.000000  -0.000000  -0.000000  -0.000115  -0.000009  -0.000009
    25  C   -0.000000  -0.000000   0.000000  -0.002722   0.002503   0.002506
    26  C    0.000000   0.000000  -0.000000   0.000009  -0.000001  -0.000001
    27  H   -0.000000  -0.000000   0.000000   0.000003  -0.000000  -0.000000
    28  C    0.000000   0.000000  -0.000000  -0.000111  -0.000004  -0.000004
    29  H   -0.000000  -0.000000   0.000000   0.004378   0.000517   0.000518
    30  H   -0.000000  -0.000000  -0.000000  -0.000000  -0.000000  -0.000000
    31  H    0.000000   0.000000   0.000000  -0.000002  -0.000000  -0.000000
    32  N    0.000000   0.000000  -0.000000   0.004559  -0.000066  -0.000066
    33  N    0.000000   0.000000   0.000001   0.300688  -0.041771  -0.041768
    34  N   -0.000066  -0.000066   0.000159   0.000000   0.000000   0.000000
    35  N   -0.041768  -0.041772  -0.031967  -0.000000   0.000000   0.000000
    36  C    0.377188   0.377194   0.375892   0.000000  -0.000000  -0.000000
    37  H    0.524148  -0.039522  -0.025144  -0.000000   0.000000  -0.000000
    38  H   -0.039522   0.524148  -0.025151  -0.000000  -0.000000   0.000000
    39  H   -0.025144  -0.025151   0.467728  -0.000001   0.000000   0.000000
    40  C   -0.000000  -0.000000  -0.000001   5.061327   0.377194   0.377188
    41  H    0.000000  -0.000000   0.000000   0.377194   0.524149  -0.039522
    42  H   -0.000000   0.000000   0.000000   0.377188  -0.039522   0.524149
    43  H    0.000000   0.000000  -0.000024   0.375892  -0.025152  -0.025144
    44  Co   0.000676   0.000679   0.008653  -0.007649   0.000680   0.000676
              43         44
     1  C   -0.000011   0.251706
     2  C   -0.000006  -0.054723
     3  C    0.000000   0.007282
     4  C   -0.000000   0.002910
     5  C    0.000000   0.007282
     6  C    0.000001  -0.054723
     7  H    0.000000  -0.000803
     8  H    0.000000   0.000112
     9  H    0.000000  -0.000803
    10  C   -0.000000   0.007466
    11  C   -0.000002   0.365112
    12  C   -0.000000   0.005826
    13  C   -0.000000  -0.001281
    14  C    0.000000  -0.001416
    15  C   -0.000000   0.000172
    16  H    0.000000   0.000050
    17  C   -0.000000   0.000160
    18  H    0.000000   0.000028
    19  H   -0.000000   0.000013
    20  H    0.000000  -0.000014
    21  C    0.000018   0.007466
    22  C    0.000578   0.365113
    23  C    0.002611   0.005826
    24  C    0.000005  -0.001281
    25  C    0.000005  -0.001416
    26  C   -0.000000   0.000172
    27  H   -0.000000   0.000050
    28  C    0.000002   0.000160
    29  H   -0.000034   0.000028
    30  H   -0.000000   0.000013
    31  H   -0.000000  -0.000014
    32  N    0.000159  -0.073217
    33  N   -0.031967  -0.055024
    34  N   -0.000000  -0.073219
    35  N    0.000001  -0.055025
    36  C   -0.000001  -0.007650
    37  H    0.000000   0.000676
    38  H    0.000000   0.000679
    39  H   -0.000024   0.008653
    40  C    0.375892  -0.007649
    41  H   -0.025152   0.000680
    42  H   -0.025144   0.000676
    43  H    0.467730   0.008653
    44  Co   0.008653  16.505826
          Atomic-Atomic Spin Densities.
               1          2          3          4          5          6
     1  C   -0.000000   0.000000   0.000000   0.000000   0.000000   0.000000
     2  C    0.000000   0.000000  -0.000000  -0.000000   0.000000  -0.000000
     3  C    0.000000  -0.000000  -0.000000   0.000000   0.000000   0.000000
     4  C    0.000000  -0.000000   0.000000  -0.000000   0.000000  -0.000000
     5  C    0.000000   0.000000   0.000000   0.000000  -0.000000  -0.000000
     6  C    0.000000  -0.000000   0.000000  -0.000000  -0.000000   0.000000
     7  H   -0.000000   0.000000   0.000000   0.000000  -0.000000  -0.000000
     8  H   -0.000000   0.000000  -0.000000   0.000000  -0.000000   0.000000
     9  H   -0.000000  -0.000000  -0.000000   0.000000   0.000000   0.000000
    10  C   -0.000000   0.000000   0.000000  -0.000000  -0.000000  -0.000000
    11  C    0.000000   0.000000   0.000000  -0.000000  -0.000000   0.000000
    12  C    0.000000   0.000000   0.000000  -0.000000  -0.000000  -0.000000
    13  C   -0.000000  -0.000000   0.000000  -0.000000  -0.000000  -0.000000
    14  C   -0.000000   0.000000   0.000000  -0.000000  -0.000000  -0.000000
    15  C   -0.000000  -0.000000  -0.000000  -0.000000   0.000000  -0.000000
    16  H   -0.000000   0.000000  -0.000000   0.000000   0.000000   0.000000
    17  C    0.000000   0.000000  -0.000000  -0.000000   0.000000  -0.000000
    18  H    0.000000  -0.000000  -0.000000   0.000000   0.000000   0.000000
    19  H    0.000000   0.000000  -0.000000   0.000000  -0.000000  -0.000000
    20  H   -0.000000   0.000000   0.000000  -0.000000  -0.000000  -0.000000
    21  C   -0.000000  -0.000000  -0.000000  -0.000000   0.000000   0.000000
    22  C    0.000000   0.000000  -0.000000  -0.000000   0.000000   0.000000
    23  C    0.000000  -0.000000  -0.000000  -0.000000   0.000000   0.000000
    24  C   -0.000000  -0.000000  -0.000000  -0.000000   0.000000  -0.000000
    25  C   -0.000000  -0.000000  -0.000000  -0.000000   0.000000   0.000000
    26  C   -0.000000  -0.000000   0.000000  -0.000000  -0.000000  -0.000000
    27  H   -0.000000   0.000000   0.000000   0.000000  -0.000000   0.000000
    28  C    0.000000  -0.000000   0.000000  -0.000000  -0.000000   0.000000
    29  H    0.000000   0.000000   0.000000   0.000000  -0.000000  -0.000000
    30  H    0.000000  -0.000000  -0.000000   0.000000  -0.000000   0.000000
    31  H   -0.000000  -0.000000  -0.000000  -0.000000   0.000000   0.000000
    32  N    0.000000  -0.000000   0.000000   0.000000  -0.000000   0.000000
    33  N   -0.000000  -0.000000  -0.000000  -0.000000  -0.000000  -0.000000
    34  N    0.000000   0.000000  -0.000000   0.000000   0.000000  -0.000000
    35  N   -0.000000  -0.000000  -0.000000  -0.000000  -0.000000  -0.000000
    36  C   -0.000000   0.000000  -0.000000  -0.000000  -0.000000  -0.000000
    37  H   -0.000000   0.000000  -0.000000  -0.000000  -0.000000  -0.000000
    38  H    0.000000  -0.000000   0.000000   0.000000   0.000000   0.000000
    39  H    0.000000   0.000000   0.000000   0.000000   0.000000  -0.000000
    40  C   -0.000000  -0.000000  -0.000000  -0.000000  -0.000000   0.000000
    41  H    0.000000   0.000000   0.000000   0.000000   0.000000  -0.000000
    42  H   -0.000000  -0.000000  -0.000000  -0.000000  -0.000000   0.000000
    43  H    0.000000  -0.000000   0.000000   0.000000   0.000000   0.000000
    44  Co   0.000000  -0.000000   0.000000   0.000000   0.000000  -0.000000
               7          8          9         10         11         12
     1  C   -0.000000  -0.000000  -0.000000  -0.000000   0.000000   0.000000
     2  C    0.000000   0.000000  -0.000000   0.000000   0.000000   0.000000
     3  C    0.000000  -0.000000  -0.000000   0.000000   0.000000   0.000000
     4  C    0.000000   0.000000   0.000000  -0.000000  -0.000000  -0.000000
     5  C   -0.000000  -0.000000   0.000000  -0.000000  -0.000000  -0.000000
     6  C   -0.000000   0.000000   0.000000  -0.000000   0.000000  -0.000000
     7  H   -0.000000  -0.000000  -0.000000   0.000000  -0.000000   0.000000
     8  H   -0.000000   0.000000  -0.000000   0.000000  -0.000000   0.000000
     9  H   -0.000000  -0.000000  -0.000000   0.000000  -0.000000   0.000000
    10  C    0.000000   0.000000   0.000000   0.000000  -0.000000   0.000000
    11  C   -0.000000  -0.000000  -0.000000  -0.000000  -0.000000  -0.000000
    12  C    0.000000   0.000000   0.000000   0.000000  -0.000000   0.000000
    13  C    0.000000  -0.000000   0.000000  -0.000000  -0.000000  -0.000000
    14  C    0.000000   0.000000   0.000000   0.000000  -0.000000   0.000000
    15  C    0.000000  -0.000000   0.000000   0.000000   0.000000  -0.000000
    16  H   -0.000000   0.000000  -0.000000   0.000000  -0.000000   0.000000
    17  C    0.000000   0.000000   0.000000  -0.000000   0.000000   0.000000
    18  H   -0.000000  -0.000000  -0.000000  -0.000000  -0.000000  -0.000000
    19  H    0.000000   0.000000   0.000000  -0.000000  -0.000000   0.000000
    20  H    0.000000   0.000000   0.000000   0.000000   0.000000  -0.000000
    21  C    0.000000   0.000000   0.000000  -0.000000  -0.000000  -0.000000
    22  C   -0.000000  -0.000000  -0.000000  -0.000000  -0.000000  -0.000000
    23  C    0.000000   0.000000   0.000000  -0.000000  -0.000000  -0.000000
    24  C    0.000000  -0.000000   0.000000  -0.000000   0.000000   0.000000
    25  C    0.000000   0.000000   0.000000  -0.000000   0.000000   0.000000
    26  C    0.000000  -0.000000   0.000000  -0.000000  -0.000000  -0.000000
    27  H   -0.000000   0.000000  -0.000000   0.000000  -0.000000   0.000000
    28  C    0.000000   0.000000   0.000000   0.000000  -0.000000   0.000000
    29  H   -0.000000  -0.000000  -0.000000   0.000000  -0.000000  -0.000000
    30  H    0.000000   0.000000   0.000000   0.000000   0.000000  -0.000000
    31  H    0.000000   0.000000   0.000000  -0.000000   0.000000   0.000000
    32  N   -0.000000  -0.000000  -0.000000   0.000000  -0.000000  -0.000000
    33  N    0.000000   0.000000   0.000000  -0.000000   0.000000   0.000000
    34  N   -0.000000  -0.000000  -0.000000   0.000000   0.000000  -0.000000
    35  N    0.000000   0.000000   0.000000  -0.000000   0.000000  -0.000000
    36  C    0.000000   0.000000  -0.000000  -0.000000   0.000000  -0.000000
    37  H    0.000000   0.000000   0.000000   0.000000   0.000000   0.000000
    38  H   -0.000000  -0.000000  -0.000000  -0.000000  -0.000000  -0.000000
    39  H   -0.000000  -0.000000  -0.000000   0.000000  -0.000000  -0.000000
    40  C   -0.000000   0.000000   0.000000  -0.000000   0.000000   0.000000
    41  H   -0.000000  -0.000000  -0.000000   0.000000  -0.000000  -0.000000
    42  H    0.000000   0.000000   0.000000  -0.000000   0.000000   0.000000
    43  H   -0.000000  -0.000000  -0.000000  -0.000000  -0.000000  -0.000000
    44  Co  -0.000000  -0.000000  -0.000000  -0.000000  -0.000000  -0.000000
              13         14         15         16         17         18
     1  C   -0.000000  -0.000000  -0.000000  -0.000000   0.000000   0.000000
     2  C   -0.000000   0.000000  -0.000000   0.000000   0.000000  -0.000000
     3  C    0.000000   0.000000  -0.000000  -0.000000  -0.000000  -0.000000
     4  C   -0.000000  -0.000000  -0.000000   0.000000  -0.000000   0.000000
     5  C   -0.000000  -0.000000   0.000000   0.000000   0.000000   0.000000
     6  C   -0.000000  -0.000000  -0.000000   0.000000  -0.000000   0.000000
     7  H    0.000000   0.000000   0.000000  -0.000000   0.000000  -0.000000
     8  H   -0.000000   0.000000  -0.000000   0.000000   0.000000  -0.000000
     9  H    0.000000   0.000000   0.000000  -0.000000   0.000000  -0.000000
    10  C   -0.000000   0.000000   0.000000   0.000000  -0.000000  -0.000000
    11  C   -0.000000  -0.000000   0.000000  -0.000000   0.000000  -0.000000
    12  C   -0.000000   0.000000  -0.000000   0.000000   0.000000  -0.000000
    13  C   -0.000000  -0.000000   0.000000   0.000000   0.000000   0.000000
    14  C   -0.000000  -0.000000   0.000000   0.000000   0.000000   0.000000
    15  C    0.000000   0.000000  -0.000000  -0.000000  -0.000000   0.000000
[...]
    40 C(13)  Bbb     0.0000     0.000     0.000     0.000  0.3487  0.9370 -0.0223
              Bcc     0.0000     0.000     0.000     0.000  0.6550 -0.2267  0.7208
 
              Baa    -0.0000    -0.000    -0.000    -0.000 -0.0887 -0.5161  0.8519
    41 H(1)   Bbb    -0.0000    -0.000    -0.000    -0.000 -0.3383  0.8201  0.4616
              Bcc     0.0000     0.000     0.000     0.000  0.9368  0.2473  0.2473
 
              Baa    -0.0000    -0.000    -0.000    -0.000  0.9338  0.2532 -0.2529
    42 H(1)   Bbb     0.0000     0.000     0.000     0.000 -0.3370  0.8597 -0.3839
              Bcc     0.0000     0.000     0.000     0.000  0.1202  0.4437  0.8881
 
              Baa    -0.0000    -0.000    -0.000    -0.000 -0.6205 -0.3229  0.7146
    43 H(1)   Bbb    -0.0000    -0.000    -0.000    -0.000 -0.4829  0.8753 -0.0237
              Bcc     0.0000     0.000     0.000     0.000  0.6179  0.3598  0.6991
 
              Baa    -0.0001    -0.008    -0.003    -0.003 -0.0001  0.7070  0.7073
    44 Co(59) Bbb    -0.0000    -0.000    -0.000    -0.000  1.0000  0.0001  0.0000
              Bcc     0.0001     0.008     0.003     0.003 -0.0001  0.7073 -0.7070
 

 ---------------------------------------------------------------------------------

   1 Symmetry operations used in ECPInt.
 ECPInt:  NShTT=   11781 NPrTT=   71406 LenC2=    9520 LenP2D=   32031.
 LDataN:  DoStor=T MaxTD1= 7 Len=  274
 Calling FoFJK, ICntrl=      2127 FMM=F ISym2X=0 I1Cent= 0 IOpClX= 1 NMat=1 NMatS=1 NMatT=0.
 -------------------------------------------------------------------
 Center     Atomic                   Forces (Hartrees/Bohr)
 Number     Number              X              Y              Z
 -------------------------------------------------------------------
      1        6          -0.000005495   -0.117661792    0.000002818
      2        6           0.075975005    0.048127051    0.000001815
      3        6          -0.014620165    0.005087751   -0.000000524
      4        6           0.000013185    0.004100293   -0.000001024
      5        6           0.014596182    0.005088314   -0.000000055
      6        6          -0.075958007    0.048123789    0.000000015
      7        1          -0.000791008    0.008433117   -0.000000239
      8        1          -0.000000454    0.003813637    0.000000274
      9        1           0.000798469    0.008436877   -0.000000277
     10        6          -0.014593512   -0.010497052   -0.000001491
     11        6          -0.003272433    0.002368048   -0.000016114
     12        6           0.011387440    0.007449673   -0.000001105
     13        6           0.008713102    0.007610164   -0.000001116
     14        6           0.003556032    0.006051512   -0.000001247
     15        6          -0.007300918    0.003798355    0.000000977
     16        1           0.001455497   -0.001313857   -0.000000514
     17        6          -0.002256062   -0.009965362    0.000000454
     18        1           0.002502933   -0.000181190    0.000000109
     19        1           0.000392322   -0.000402654   -0.000000196
     20        1           0.004363459    0.000007444   -0.000000138
     21        6           0.014569586   -0.010491029   -0.000002512
     22        6           0.003259899    0.002372140   -0.000019821
     23        6          -0.011349175    0.007471522   -0.000002424
     24        6          -0.008676679    0.007602154   -0.000000861
     25        6          -0.003598977    0.006043599   -0.000001462
     26        6           0.007267498    0.003795297    0.000000593
     27        1          -0.001458381   -0.001315764   -0.000000283
     28        6           0.002286868   -0.009964013    0.000000818
     29        1          -0.002498563   -0.000173981   -0.000000113
     30        1          -0.000385618   -0.000408599   -0.000000231
     31        1          -0.004374868    0.000005416    0.000000024
     32        7          -0.021683023   -0.063303481    0.000011678
     33        7           0.029047079    0.027356470    0.000014342
     34        7           0.021681085   -0.063290336    0.000008139
     35        7          -0.029041057    0.027362748    0.000010979
     36        6          -0.000697992   -0.012640871    0.000003672
     37        1           0.001109031    0.001325758    0.001212915
     38        1           0.001106638    0.001328675   -0.001218102
     39        1           0.001443364    0.003444501    0.000001269
     40        6           0.000699835   -0.012638983    0.000003590
     41        1          -0.001106588    0.001329591   -0.001218546
     42        1          -0.001109679    0.001325128    0.001212550
     43        1          -0.001443360    0.003443939    0.000001517
     44       27          -0.000002498    0.061546001   -0.000000155
 -------------------------------------------------------------------
 Cartesian Forces:  Max     0.117661792 RMS     0.019223526

 GradGradGradGradGradGradGradGradGradGradGradGradGradGradGradGradGradGrad
 Berny optimization.
 Search for a local minimum.
 Step number   1 out of a maximum of    2
 All quantities printed in internal units (Hartrees-Bohrs-Radians)
 Second derivative matrix not updated -- first step.
 ITU=  0
     Eigenvalues ---    0.00055   0.00056   0.00198   0.00246   0.00246
     Eigenvalues ---    0.00387   0.00447   0.00611   0.00671   0.00671
     Eigenvalues ---    0.00684   0.00829   0.00846   0.01350   0.01565
     Eigenvalues ---    0.01833   0.02043   0.02097   0.02544   0.02567
     Eigenvalues ---    0.03069   0.03144   0.04101   0.04202   0.04467
     Eigenvalues ---    0.04512   0.04674   0.05368   0.05525   0.06141
     Eigenvalues ---    0.06232   0.06936   0.06966   0.07086   0.07093
     Eigenvalues ---    0.07101   0.07323   0.07669   0.07737   0.09596
     Eigenvalues ---    0.10052   0.10188   0.10408   0.11641   0.11937
     Eigenvalues ---    0.12021   0.12273   0.12439   0.12860   0.13373
     Eigenvalues ---    0.13383   0.13436   0.13694   0.14799   0.15368
     Eigenvalues ---    0.15575   0.15864   0.19647   0.20125   0.20294
     Eigenvalues ---    0.20989   0.21922   0.24060   0.24939   0.28557
     Eigenvalues ---    0.29593   0.29903   0.30848   0.31073   0.31839
     Eigenvalues ---    0.31931   0.34957   0.35040   0.36721   0.37802
     Eigenvalues ---    0.37983   0.41318   0.41667   0.44491   0.47533
     Eigenvalues ---    0.48595   0.49137   0.49337   0.51031   0.51709
     Eigenvalues ---    0.53947   0.54869   0.55011   0.62209   0.63138
     Eigenvalues ---    0.69120   0.71190   0.72515   0.74488   0.87009
     Eigenvalues ---    0.90178   0.90984   0.91211   0.93031   0.94653
     Eigenvalues ---    0.95508   0.97128   1.00388   1.04886   1.12970
     Eigenvalues ---    1.16217   1.16434   1.19123   1.21461   1.25158
     Eigenvalues ---    1.32233   1.38650   1.38765   1.47500   1.47765
     Eigenvalues ---    1.50053   1.51297   1.55094   1.61715   1.64895
     Eigenvalues ---    1.66586   1.67649   1.78968   1.80080   1.86514
     Eigenvalues ---    1.91111
 Quadratic step=7.231D-01 exceeds max=3.000D-01 adjusted using Lamda=-1.074D-01.
 Angle between NR and scaled steps=  46.04 degrees.
 Angle between quadratic step and forces=  36.19 degrees.
 Linear search not attempted -- first point.
 B after Tr=    -0.000000   -0.000695   -0.000000
         Rot=    1.000000   -0.000000   -0.000000    0.000000 Ang=  -0.00 deg.
 Variable       Old X    -DE/DX   Delta X   Delta X   Delta X     New X
                                 (Linear)    (Quad)   (Total)
    X1        0.00000  -0.00001   0.00000  -0.00000  -0.00000  -0.00000
    Y1        1.59452  -0.11766   0.00000  -0.19131  -0.19201   1.40251
    Z1        0.00010   0.00000   0.00000   0.00000   0.00000   0.00010
    X2       -2.44346   0.07598   0.00000   0.08933   0.08933  -2.35414
    Y2        2.57206   0.04813   0.00000  -0.01583  -0.01653   2.55553
    Z2        0.00002   0.00000   0.00000   0.00002   0.00002   0.00004
    X3       -2.34898  -0.01462   0.00000   0.00944   0.00944  -2.33954
    Y3        5.20474   0.00509   0.00000   0.00884   0.00814   5.21288
    Z3       -0.00001  -0.00000   0.00000   0.00000   0.00000  -0.00001
    X4       -0.00001   0.00001   0.00000   0.00001   0.00001   0.00000
    Y4        6.41932   0.00410   0.00000   0.02853   0.02783   6.44715
    Z4        0.00002  -0.00000   0.00000  -0.00000  -0.00000   0.00002
    X5        2.34901   0.01460   0.00000  -0.00945  -0.00945   2.33956
    Y5        5.20473   0.00509   0.00000   0.00884   0.00814   5.21288
    Z5        0.00008  -0.00000   0.00000   0.00000   0.00000   0.00008
    X6        2.44345  -0.07596   0.00000  -0.08932  -0.08932   2.35413
    Y6        2.57206   0.04812   0.00000  -0.01583  -0.01652   2.55553
    Z6        0.00010   0.00000   0.00000   0.00001   0.00001   0.00011
    X7       -4.07737  -0.00079   0.00000   0.00620   0.00620  -4.07117
    Y7        6.29482   0.00843   0.00000   0.02600   0.02530   6.32013
    Z7       -0.00007  -0.00000   0.00000  -0.00000   0.00000  -0.00007
    X8        0.00000  -0.00000   0.00000   0.00000   0.00000   0.00000
    Y8        8.46274   0.00381   0.00000   0.03022   0.02952   8.49226
    Z8       -0.00002   0.00000   0.00000  -0.00000  -0.00000  -0.00002
    X9        4.07737   0.00080   0.00000  -0.00619  -0.00619   4.07118
    Y9        6.29482   0.00844   0.00000   0.02600   0.02531   6.32013
    Z9        0.00010  -0.00000   0.00000  -0.00000  -0.00000   0.00010
   X10        6.99515  -0.01459   0.00000  -0.03034  -0.03034   6.96481
   Y10        1.10196  -0.01050   0.00000  -0.01485  -0.01554   1.08642
   Z10       -0.00005  -0.00000   0.00000   0.00000  -0.00000  -0.00005
   X11        3.64426  -0.00327   0.00000  -0.03957  -0.03958   3.60469
   Y11       -1.71238   0.00237   0.00000   0.00288   0.00218  -1.71020
   Z11        0.00026  -0.00002   0.00000  -0.00004  -0.00004   0.00022
   X12        7.92175   0.01139   0.00000  -0.00675  -0.00675   7.91501
   Y12       -1.40782   0.00745   0.00000   0.00976   0.00906  -1.39875
   Z12       -0.00017  -0.00000   0.00000   0.00000   0.00000  -0.00017
   X13        8.60486   0.00871   0.00000  -0.01069  -0.01069   8.59417
   Y13        3.14801   0.00761   0.00000  -0.00087  -0.00156   3.14645
   Z13       -0.00011  -0.00000   0.00000  -0.00000  -0.00000  -0.00011
   X14       10.49168   0.00356   0.00000  -0.00055  -0.00055  10.49112
   Y14       -1.89086   0.00605   0.00000   0.00598   0.00529  -1.88557
   Z14       -0.00037  -0.00000   0.00000  -0.00000  -0.00000  -0.00037
   X15       11.20693  -0.00730   0.00000  -0.01450  -0.01450  11.19243
   Y15        2.66065   0.00380   0.00000  -0.00227  -0.00297   2.65768
   Z15       -0.00032   0.00000   0.00000   0.00000   0.00000  -0.00032
   X16        7.88565   0.00146   0.00000   0.00253   0.00253   7.88818
   Y16        5.06930  -0.00131   0.00000  -0.00060  -0.00129   5.06801
   Z16        0.00001  -0.00000   0.00000  -0.00000  -0.00000   0.00001
   X17       12.12247  -0.00226   0.00000  -0.00138  -0.00138  12.12109
   Y17        0.19859  -0.00997   0.00000  -0.00783  -0.00853   0.19006
   Z17       -0.00046   0.00000   0.00000   0.00000   0.00000  -0.00046
   X18       11.18587   0.00250   0.00000   0.01003   0.01003  11.19590
   Y18       -3.81844  -0.00018   0.00000   0.00610   0.00540  -3.81303
   Z18       -0.00046   0.00000   0.00000   0.00000   0.00000  -0.00046
   X19       12.51390   0.00039   0.00000  -0.00731  -0.00731  12.50659
   Y19        4.24212  -0.00040   0.00000  -0.00498  -0.00567   4.23645
   Z19       -0.00037  -0.00000   0.00000  -0.00000  -0.00000  -0.00037
   X20       14.13615   0.00436   0.00000   0.00921   0.00921  14.14536
   Y20       -0.13446   0.00001   0.00000  -0.00030  -0.00099  -0.13545
   Z20       -0.00062  -0.00000   0.00000   0.00000   0.00000  -0.00062
   X21       -6.99512   0.01457   0.00000   0.03033   0.03033  -6.96479
   Y21        1.10195  -0.01049   0.00000  -0.01484  -0.01554   1.08642
   Z21       -0.00007  -0.00000   0.00000   0.00000   0.00000  -0.00007
   X22       -3.64422   0.00326   0.00000   0.03956   0.03956  -3.60466
   Y22       -1.71240   0.00237   0.00000   0.00288   0.00219  -1.71021
   Z22        0.00020  -0.00002   0.00000  -0.00004  -0.00004   0.00016
   X23       -7.92177  -0.01135   0.00000   0.00677   0.00677  -7.91500
   Y23       -1.40785   0.00747   0.00000   0.00978   0.00908  -1.39877
   Z23       -0.00012  -0.00000   0.00000   0.00000   0.00000  -0.00012
   X24       -8.60489  -0.00868   0.00000   0.01072   0.01072  -8.59417
   Y24        3.14801   0.00760   0.00000  -0.00087  -0.00157   3.14644
   Z24       -0.00010  -0.00000   0.00000  -0.00000  -0.00000  -0.00011
   X25      -10.49163  -0.00360   0.00000   0.00053   0.00053 -10.49110
   Y25       -1.89087   0.00604   0.00000   0.00598   0.00529  -1.88558
   Z25       -0.00018  -0.00000   0.00000  -0.00001  -0.00001  -0.00019
   X26      -11.20691   0.00727   0.00000   0.01448   0.01448 -11.19243
   Y26        2.66064   0.00380   0.00000  -0.00228  -0.00297   2.65767
   Z26       -0.00019   0.00000   0.00000  -0.00000   0.00000  -0.00019
   X27       -7.88565  -0.00146   0.00000  -0.00253  -0.00253  -7.88817
   Y27        5.06930  -0.00132   0.00000  -0.00060  -0.00130   5.06800
   Z27       -0.00005  -0.00000   0.00000  -0.00000  -0.00000  -0.00005
   X28      -12.12249   0.00229   0.00000   0.00140   0.00140 -12.12109
   Y28        0.19858  -0.00996   0.00000  -0.00784  -0.00853   0.19005
   Z28       -0.00024   0.00000   0.00000   0.00000   0.00000  -0.00024
   X29      -11.18585  -0.00250   0.00000  -0.01003  -0.01003 -11.19589
   Y29       -3.81846  -0.00017   0.00000   0.00611   0.00542  -3.81304
   Z29       -0.00019  -0.00000   0.00000  -0.00000  -0.00000  -0.00020
   X30      -12.51391  -0.00039   0.00000   0.00731   0.00731 -12.50660
   Y30        4.24211  -0.00041   0.00000  -0.00499  -0.00569   4.23643
   Z30       -0.00020  -0.00000   0.00000  -0.00000  -0.00000  -0.00021
   X31      -14.13613  -0.00437   0.00000  -0.00922  -0.00922 -14.14535
   Y31       -0.13448   0.00001   0.00000  -0.00030  -0.00099  -0.13547
   Z31       -0.00029   0.00000   0.00000   0.00000   0.00000  -0.00029
   X32       -4.37496  -0.02168   0.00000   0.02876   0.02876  -4.34620
   Y32        0.89234  -0.06330   0.00000  -0.05710  -0.05780   0.83454
   Z32       -0.00000   0.00001   0.00000   0.00003   0.00003   0.00002
   X33       -5.90675   0.02905   0.00000   0.04861   0.04861  -5.85814
   Y33       -3.03903   0.02736   0.00000   0.03245   0.03175  -3.00727
   Z33       -0.00011   0.00001   0.00000   0.00003   0.00003  -0.00008
   X34        4.37497   0.02168   0.00000  -0.02876  -0.02876   4.34621
   Y34        0.89233  -0.06329   0.00000  -0.05709  -0.05779   0.83454
   Z34        0.00012   0.00001   0.00000   0.00001   0.00001   0.00013
   X35        5.90676  -0.02904   0.00000  -0.04861  -0.04861   5.85815
   Y35       -3.03902   0.02736   0.00000   0.03245   0.03175  -3.00727
   Z35       -0.00008   0.00001   0.00000   0.00002   0.00002  -0.00006
   X36        6.04993  -0.00070   0.00000  -0.01311  -0.01311   6.03682
   Y36       -5.72833  -0.01264   0.00000   0.00697   0.00628  -5.72206
   Z36        0.00001   0.00000   0.00000   0.00001   0.00001   0.00002
   X37        7.02050   0.00111   0.00000   0.00136   0.00136   7.02186
   Y37       -6.43341   0.00133   0.00000   0.01447   0.01378  -6.41963
   Z37       -1.69175   0.00121   0.00000   0.00524   0.00524  -1.68652
   X38        7.01963   0.00111   0.00000   0.00136   0.00136   7.02100
   Y38       -6.43343   0.00133   0.00000   0.01447   0.01377  -6.41966
   Z38        1.69229  -0.00122   0.00000  -0.00524  -0.00524   1.68705
   X39        4.13114   0.00144   0.00000  -0.00514  -0.00514   4.12600
   Y39       -6.50598   0.00344   0.00000   0.00906   0.00836  -6.49762
   Z39       -0.00051   0.00000   0.00000   0.00001   0.00001  -0.00051
   X40       -6.04992   0.00070   0.00000   0.01311   0.01311  -6.03681
   Y40       -5.72835  -0.01264   0.00000   0.00697   0.00628  -5.72207
   Z40        0.00008   0.00000   0.00000   0.00001   0.00001   0.00009
   X41       -7.01950  -0.00111   0.00000  -0.00136  -0.00136  -7.02086
   Y41       -6.43341   0.00133   0.00000   0.01447   0.01378  -6.41963
   Z41        1.69245  -0.00122   0.00000  -0.00524  -0.00524   1.68721
   X42       -7.02060  -0.00111   0.00000  -0.00136  -0.00136  -7.02197
   Y42       -6.43346   0.00133   0.00000   0.01447   0.01378  -6.41969
   Z42       -1.69160   0.00121   0.00000   0.00524   0.00524  -1.68636
   X43       -4.13113  -0.00144   0.00000   0.00514   0.00514  -4.12598
   Y43       -6.50598   0.00344   0.00000   0.00905   0.00836  -6.49762
   Z43       -0.00057   0.00000   0.00000   0.00001   0.00001  -0.00056
   X44        0.00002  -0.00000   0.00000  -0.00001  -0.00001   0.00001
   Y44       -2.36507   0.06155   0.00000   0.09844   0.09775  -2.26732
   Z44        0.00032  -0.00000   0.00000  -0.00004  -0.00004   0.00028
         Item               Value     Threshold  Converged?
 Maximum Force            0.117662     0.000450     NO 
 RMS     Force            0.019224     0.000300     NO 
 Maximum Displacement     0.192007     0.001800     NO 
 RMS     Displacement     0.026115     0.001200     NO 
 Predicted change in Energy=-3.158316D-02
 GradGradGradGradGradGradGradGradGradGradGradGradGradGradGradGradGradGrad

 Unable to Open any file for archive entry.
 1\1\GINC-X11P1N5\Force\UPBE1PBE\GenECP\C22H17Co1N4\MAYUMIAO\17-Jul-202
 4\0\\# pbe1pbe em=gd3bj genecp g09default scf=(xqc,maxcycle=64) force 
 guess=read nosymm\\Title Card\\0,1\C,0.00000089,0.84378176,0.00005181\
 C,-1.29302545,1.36107396,0.00001305\C,-1.24302616,2.75422792,-0.000007
 09\C,-0.000003,3.39695858,0.00001219\C,1.24304161,2.75422696,0.0000401
 2\C,1.29301804,1.36107439,0.00005342\H,-2.15765087,3.33107683,-0.00003
 871\H,0.00000053,4.47828972,-0.00000968\H,2.15765198,3.33107431,0.0000
 5169\C,3.70167176,0.58313388,-0.00002549\C,1.92846082,-0.90615291,0.00
 013733\C,4.19201116,-0.74498378,-0.00009241\C,4.55349536,1.66585662,-0
 .00005756\C,5.55195639,-1.00059908,-0.00019451\C,5.93045268,1.40795549
 ,-0.00017112\H,4.17290484,2.68255898,0.00000767\C,6.41493399,0.1050914
 9,-0.00024263\H,5.91930532,-2.0206288,-0.00024146\H,6.62206822,2.24483
 348,-0.00019614\H,7.48052918,-0.07115219,-0.00032924\C,-3.70165881,0.5
 8312735,-0.00003735\C,-1.9284401,-0.90616273,0.00010821\C,-4.19201786,
 -0.74500084,-0.00006493\C,-4.55351117,1.66585453,-0.00005382\C,-5.5519
 3208,-1.00060344,-0.00009722\C,-5.9304408,1.40795017,-0.00010104\H,-4.
 17290386,2.68255545,-0.00002396\C,-6.41494283,0.10508302,-0.00012501\H
 ,-5.91929939,-2.02064019,-0.00010184\H,-6.62207615,2.24482964,-0.00010
 824\H,-7.48051955,-0.07116334,-0.00015444\N,-2.31513055,0.47220486,-0.
 00000143\N,-3.12571785,-1.6081836,-0.00005676\N,2.31513378,0.47219849,
 0.00006117\N,3.12572249,-1.60818089,-0.00004114\C,3.20148503,-3.031304
 06,0.00000493\H,3.71508838,-3.4044147,-0.89523779\H,3.71463012,-3.4044
 2701,0.89552154\H,2.1861051,-3.44281745,-0.00027156\C,-3.20147952,-3.0
 3131014,0.00004178\H,-3.71455762,-3.4044157,0.89560546\H,-3.71514239,-
 3.40444305,-0.89515559\H,-2.1860973,-3.44281738,-0.00030076\Co,0.00001
 127,-1.2515392,0.00016845\\Version=ES64L-G16RevC.01\HF=-1212.1034557\S
 2=0.\S2-1=0.\S2A=0.\RMSD=5.528e-09\RMSF=1.922e-02\Dipole=0.000099,-1.4
 32991,-0.0000764\Quadrupole=13.6399789,7.0525467,-20.6925257,0.0000667
 ,-0.0004091,0.0001135\PG=C01 [X(C22H17Co1N4)]\\@
 The archive entry for this job was punched.


 IF GOD HAD MEANT MAN TO SEE THE SUN RISE, HE
 WOULD HAVE SCHEDULED IT FOR A LATER HOUR.
 Job cpu time:       0 days  0 hours 31 minutes 40.9 seconds.
 Elapsed time:       0 days  0 hours  0 minutes 34.6 seconds.
 File lengths (MBytes):  RWF=    184 Int=      0 D2E=      0 Chk=    162 Scr=      1
 Normal termination of Gaussian 16 at Wed Jul 17 21:09:42 2024.
