 Entering Gaussian System, Link 0=g16
 Input=JOBS/24_A.gjf
 Output=JOBS/24_A.log
 Initial command:
 /data/app/gaussian/C01-avx2//g16/l1.exe "/tmp/Gau-2077308.inp" -scrdir="/tmp/"
 Entering Link 1 = /data/app/gaussian/C01-avx2//g16/l1.exe PID=   2077309.
  
 Copyright (c) 1988-2019, Gaussian, Inc.  All Rights Reserved.
  
 This is part of the Gaussian(R) 16 program.  It is based on
 the Gaussian(R) 09 system (copyright 2009, Gaussian, Inc.),
 the Gaussian(R) 03 system (copyright 2003, Gaussian, Inc.),
 the Gaussian(R) 98 system (copyright 1998, Gaussian, Inc.),
 the Gaussian(R) 94 system (copyright 1995, Gaussian, Inc.),
 the Gaussian 92(TM) system (copyright 1992, Gaussian, Inc.),
 the Gaussian 90(TM) system (copyright 1990, Gaussian, Inc.),
 the Gaussian 88(TM) system (copyright 1988, Gaussian, Inc.),
 the Gaussian 86(TM) system (copyright 1986, Carnegie Mellon
 University), and the Gaussian 82(TM) system (copyright 1983,
 Carnegie Mellon University). Gaussian is a federally registered
 trademark of Gaussian, Inc.
  
 This software contains proprietary and confidential information,
 including trade secrets, belonging to Gaussian, Inc.
  
 This software is provided under written license and may be
 used, copied, transmitted, or stored only in accord with that
 written license.
  
 The following legend is applicable only to US Government
 contracts under FAR:
  
                    RESTRICTED RIGHTS LEGEND
  
 Use, reproduction and disclosure by the US Government is
 subject to restrictions as set forth in subparagraphs (a)
 and (c) of the Commercial Computer Software - Restricted
 Rights clause in FAR 52.227-19.
  
 Gaussian, Inc.
 340 Quinnipiac St., Bldg. 40, Wallingford CT 06492
  
  
 ---------------------------------------------------------------
 Warning -- This program may not be used in any manner that
 competes with the business of Gaussian, Inc. or will provide
 assistance to any competitor of Gaussian, Inc.  The licensee
 of this program is prohibited from giving any competitor of
 Gaussian, Inc. access to this program.  By using this program,
 the user acknowledges that Gaussian, Inc. is engaged in the
 business of creating and licensing software in the field of
 computational chemistry and represents and warrants to the
 licensee that it is not a competitor of Gaussian, Inc. and that
 it will not use this program in any manner prohibited above.
 ---------------------------------------------------------------
  

 Cite this work as:
 Gaussian 16, Revision C.01,
 M. J. Frisch, G. W. Trucks, H. B. Schlegel, G. E. Scuseria, 
 M. A. Robb, J. R. Cheeseman, G. Scalmani, V. Barone, 
 G. A. Petersson, H. Nakatsuji, X. Li, M. Caricato, A. V. Marenich, 
 J. Bloino, B. G. Janesko, R. Gomperts, B. Mennucci, H. P. Hratchian, 
 J. V. Ortiz, A. F. Izmaylov, J. L. Sonnenberg, D. Williams-Young, 
 F. Ding, F. Lipparini, F. Egidi, J. Goings, B. Peng, A. Petrone, 
 T. Henderson, D. Ranasinghe, V. G. Zakrzewski, J. Gao, N. Rega, 
 G. Zheng, W. Liang, M. Hada, M. Ehara, K. Toyota, R. Fukuda, 
 J. Hasegawa, M. Ishida, T. Nakajima, Y. Honda, O. Kitao, H. Nakai, 
 T. Vreven, K. Throssell, J. A. Montgomery, Jr., J. E. Peralta, 
 F. Ogliaro, M. J. Bearpark, J. J. Heyd, E. N. Brothers, K. N. Kudin, 
 V. N. Staroverov, T. A. Keith, R. Kobayashi, J. Normand, 
 K. Raghavachari, A. P. Rendell, J. C. Burant, S. S. Iyengar, 
 J. Tomasi, M. Cossi, J. M. Millam, M. Klene, C. Adamo, R. Cammi, 
 J. W. Ochterski, R. L. Martin, K. Morokuma, O. Farkas, 
 J. B. Foresman, and D. J. Fox, Gaussian, Inc., Wallingford CT, 2019.
 
 ******************************************
 Gaussian 16:  ES64L-G16RevC.01  3-Jul-2019
                17-Jul-2024 
 ******************************************
 %chk=a.chk
 %nprocshared=56
 Will use up to   56 processors via shared memory.
 %mem=96gb
 ----------------------------------------------------------------------
 # pbe1pbe em=gd3bj genecp g09default scf=(xqc,maxcycle=64) force guess
 =read nosymm
 ----------------------------------------------------------------------
 1/10=7,30=1,38=1,158=3,167=1/1,3;
 2/12=2,15=1,17=6,18=5,40=1/2;
 3/5=7,11=2,16=1,17=8,25=1,27=10,30=1,71=1,74=-13,75=-4,116=-2,124=41,158=3/1,2,3;
 4/5=1,60=-1/1;
 5/5=2,7=64,8=3,13=1,38=6,87=10/2,8;
 6/7=2,8=2,9=2,10=2,28=1,87=10/1;
 7/29=1,30=1,87=10/1,2,3,16;
 1/10=7,30=1,158=3,167=1/3;
 99//99;
 Using 2006 physical constants.
 ----------
 Title Card
 ----------
 Symbolic Z-matrix:
 Charge =  0 Multiplicity = 1
 6                     0.00001   0.83585   0.00008 
 6                    -1.29486   1.35958   0.00001 
 6                    -1.2491    2.75443  -0.00001 
 6                    0.         3.39185   0.00001 
 6                     1.24911   2.75442   0.00004 
 6                     1.29485   1.35959   0.00005 
 1                    -2.15898   3.33283  -0.00004 
 1                     0.        4.47654  -0.00001 
 1                     2.15898   3.33283   0.00005 
 6                     3.69885   0.58174  -0.00003 
 6                     1.92382  -0.90786   0.00013 
 6                     4.18888  -0.74384  -0.00009 
 6                     4.55099   1.66802  -0.00006 
 6                     5.55063  -1.00093  -0.00019 
 6                     5.93374   1.4058   -0.00017 
 1                     4.17366   2.68222   0.00001 
 6                     6.41365   0.10713  -0.00024 
 1                     5.91934  -2.02032  -0.00024 
 1                     6.62198   2.24455  -0.0002 
 1                     7.48218  -0.07099  -0.00033 
 6                    -3.69882   0.58171  -0.00004 
 6                    -1.92381  -0.90787   0.0001 
 6                    -4.1889   -0.74384  -0.00007 
 6                    -4.551     1.66805  -0.00005 
 6                    -5.5506   -1.00094  -0.0001 
 6                    -5.93374   1.40578  -0.0001 
 1                    -4.17366   2.68221  -0.00002 
 6                    -6.41366   0.10713  -0.00013 
 1                    -5.91933  -2.02033  -0.0001 
 1                    -6.62199   2.24455  -0.00011 
 1                    -7.48217  -0.071    -0.00015 
 7                    -2.31498   0.47586   0. 
 7                    -3.12463  -1.6057   -0.00005 
 7                     2.31499   0.47585   0.00007 
 7                     3.12464  -1.60569  -0.00004 
 6                     3.20066  -3.03116   0.00001 
 1                     3.71507  -3.40404  -0.89503 
 1                     3.71461  -3.40405   0.89531 
 1                     2.18701  -3.44307  -0.00027 
 6                    -3.20065  -3.03117   0.00005 
 1                    -3.71454  -3.40404   0.89539 
 1                    -3.71513  -3.40407  -0.89495 
 1                    -2.18701  -3.44307  -0.0003 
 27                    0.00001  -1.25047   0.00016 
 

 GradGradGradGradGradGradGradGradGradGradGradGradGradGradGradGradGradGrad
 Berny optimization.
 Initialization pass.
 Trust Radius=3.00D-01 FncErr=1.00D-07 GrdErr=1.00D-07 EigMax=2.50D+02 EigMin=1.00D-04
 Number of steps in this run=      2 maximum allowed number of steps=      2.
 GradGradGradGradGradGradGradGradGradGradGradGradGradGradGradGradGradGrad

                          Input orientation:                          
 ---------------------------------------------------------------------
 Center     Atomic      Atomic             Coordinates (Angstroms)
 Number     Number       Type             X           Y           Z
 ---------------------------------------------------------------------
      1          6           0        0.000008    0.835852    0.000081
      2          6           0       -1.294863    1.359584    0.000009
      3          6           0       -1.249104    2.754427   -0.000009
      4          6           0       -0.000001    3.391849    0.000012
      5          6           0        1.249113    2.754420    0.000039
      6          6           0        1.294847    1.359594    0.000048
      7          1           0       -2.158977    3.332833   -0.000039
      8          1           0        0.000000    4.476542   -0.000010
      9          1           0        2.158981    3.332833    0.000051
     10          6           0        3.698848    0.581744   -0.000028
     11          6           0        1.923816   -0.907864    0.000126
     12          6           0        4.188878   -0.743840   -0.000091
     13          6           0        4.550987    1.668020   -0.000058
     14          6           0        5.550633   -1.000934   -0.000194
     15          6           0        5.933743    1.405801   -0.000171
     16          1           0        4.173658    2.682219    0.000007
     17          6           0        6.413651    0.107128   -0.000243
     18          1           0        5.919335   -2.020322   -0.000241
     19          1           0        6.621983    2.244555   -0.000196
     20          1           0        7.482177   -0.070986   -0.000330
     21          6           0       -3.698821    0.581710   -0.000040
     22          6           0       -1.923805   -0.907873    0.000099
     23          6           0       -4.188896   -0.743845   -0.000065
     24          6           0       -4.551004    1.668045   -0.000054
     25          6           0       -5.550603   -1.000945   -0.000097
     26          6           0       -5.933740    1.405785   -0.000101
     27          1           0       -4.173660    2.682206   -0.000024
     28          6           0       -6.413655    0.107131   -0.000125
     29          1           0       -5.919329   -2.020332   -0.000102
     30          1           0       -6.621989    2.244550   -0.000108
     31          1           0       -7.482171   -0.070998   -0.000154
     32          7           0       -2.314984    0.475860    0.000005
     33          7           0       -3.124626   -1.605696   -0.000050
     34          7           0        2.314990    0.475845    0.000067
     35          7           0        3.124642   -1.605693   -0.000037
     36          6           0        3.200656   -3.031159    0.000009
     37          1           0        3.715072   -3.404040   -0.895030
     38          1           0        3.714612   -3.404053    0.895311
     39          1           0        2.187015   -3.443066   -0.000273
     40          6           0       -3.200652   -3.031166    0.000046
     41          1           0       -3.714539   -3.404041    0.895394
     42          1           0       -3.715125   -3.404068   -0.894947
     43          1           0       -2.187006   -3.443066   -0.000302
     44         27           0        0.000011   -1.250470    0.000155
 ---------------------------------------------------------------------
                    Distance matrix (angstroms):
                    1          2          3          4          5
     1  C    0.000000
     2  C    1.396777   0.000000
     3  C    2.289369   1.395593   0.000000
     4  C    2.555998   2.409724   1.402343   0.000000
     5  C    2.289360   2.901273   2.498217   1.402356   0.000000
     6  C    1.396751   2.589710   2.901249   2.409708   1.395576
     7  H    3.300929   2.154160   1.078157   2.159782   3.456825
     8  H    3.640691   3.375218   2.127426   1.084693   2.127437
     9  H    3.300921   3.977782   3.456819   2.159788   1.078156
    10  C    3.707559   5.053928   5.403960   4.645232   3.274404
    11  C    2.596456   3.937158   4.845595   4.710478   3.723915
    12  C    4.476836   5.873314   6.466028   5.886479   4.569468
    13  C    4.626437   5.853982   5.900961   4.866527   3.476008
    14  C    5.846641   7.241054   7.767828   7.078565   5.710144
    15  C    5.961045   7.228754   7.308357   6.257292   4.874887
    16  H    4.563817   5.626197   5.423243   4.233557   2.925436
    17  C    6.454909   7.809599   8.107158   7.205854   5.803499
    18  H    6.572379   7.966707   8.613057   8.020607   6.679007
    19  H    6.770155   7.966155   7.887584   6.720637   5.397008
    20  H    7.536923   8.892860   9.177049   8.244648   6.843537
    21  C    3.707550   2.526678   3.274418   4.645229   5.403955
    22  C    2.596465   2.353068   3.723931   4.710481   4.845596
    23  C    4.476869   3.577686   4.569494   5.886493   6.466050
    24  C    4.626473   3.270719   3.476028   4.866532   5.900981
    25  C    5.846632   4.866561   5.710141   7.078547   7.767812
    26  C    5.961056   4.639107   4.874900   6.257293   7.308365
    27  H    4.563828   3.168091   2.925448   4.233559   5.423254
    28  C    6.454929   5.269788   5.803513   7.205854   8.107167
    29  H    6.572392   5.727959   6.679021   8.020608   8.613061
    30  H    6.770175   5.400133   5.397024   6.720641   7.887599
    31  H    7.536934   6.350538   6.843547   8.244645   9.177053
    32  N    2.342814   1.349672   2.515545   3.723189   4.230203
    33  N    3.965412   3.484382   4.746394   5.893958   6.175776
    34  N    2.342807   3.716454   4.230213   3.723206   2.515550
    35  N    3.965410   5.322114   6.175784   5.893965   4.746387
    36  C    5.019753   6.283973   7.298860   7.176297   6.105852
    37  H    5.707855   6.970844   7.960579   7.796601   6.693932
    38  H    5.707583   6.970555   7.960336   7.796422   6.693801
    39  H    4.805428   5.932025   7.086313   7.176288   6.268053
    40  C    5.019766   4.786514   6.105868   7.176301   7.298864
    41  H    5.707550   5.417441   6.693791   7.796385   7.960285
    42  H    5.707908   5.417656   6.693970   7.796640   7.960631
    43  H    4.805431   4.884810   6.268061   7.176285   7.086307
    44  Co   2.086322   2.913603   4.195175   4.642320   4.195164
                    6          7          8          9         10
     6  C    0.000000
     7  H    3.977760   0.000000
     8  H    3.375203   2.443205   0.000000
     9  H    2.154159   4.317958   2.443208   0.000000
    10  C    2.526712   6.471677   5.371306   3.152726   0.000000
    11  C    2.353076   5.886655   5.717770   4.247212   2.317255
    12  C    3.577688   7.544172   6.693212   4.554091   1.413259
    13  C    3.270715   6.913409   5.347829   2.914326   1.380629
    14  C    4.866600   8.844185   7.798221   5.503166   2.435975
    15  C    4.639126   8.318988   6.681224   4.238193   2.381979
    16  H    3.168105   6.365969   4.543018   2.117126   2.153472
    17  C    5.269803   9.159428   7.760586   5.339231   2.755978
    18  H    5.727977   9.690996   8.789071   6.541906   3.420718
    19  H    5.400142   8.848141   6.988020   4.593772   3.362983
    20  H    6.350560  10.224374   8.755740   6.318417   3.839223
    21  C    5.053892   3.152745   5.371313   6.471671   7.397669
    22  C    3.937147   4.247221   5.717775   5.886657   5.816630
    23  C    5.873320   4.554105   6.693227   7.544192   7.998355
    24  C    5.853983   2.914329   5.347831   6.913423   8.321064
    25  C    7.241017   5.503159   7.798209   8.844168   9.383883
    26  C    7.228734   4.238202   6.681229   8.318993   9.667771
    27  H    5.626178   2.117136   4.543026   6.365976   8.147903
    28  C    7.809588   5.339236   7.760588   9.159434  10.123635
    29  H    7.966695   6.541913   8.789075   9.690999   9.963942
    30  H    7.966143   4.593782   6.988028   8.848152  10.453928
    31  H    8.892841   6.318422   8.755741  10.224376  11.200056
    32  N    3.716431   2.861229   4.622186   5.308357   6.014764
    33  N    5.322094   5.032052   6.837903   7.232259   7.165521
    34  N    1.349704   5.308366   4.622202   2.861244   1.387905
    35  N    3.484405   7.232266   6.837907   5.032051   2.261547
    36  C    4.786524   8.320220   8.161481   6.448680   3.647089
    37  H    5.417644   8.982813   8.758219   6.971947   4.085067
    38  H    5.417480   8.982557   8.758066   6.971880   4.085151
    39  H    4.884824   8.049873   8.216035   6.775957   4.299388
    40  C    6.283970   6.448688   8.161486   8.320225   7.788211
    41  H    6.970495   6.971875   8.758033   8.982502   8.464430
    42  H    6.970890   6.971965   8.758259   8.982872   8.464903
    43  H    5.932018   6.775957   8.216033   8.049870   7.130384
    44  Co   2.913595   5.066349   5.727012   5.066342   4.127761
                   11         12         13         14         15
    11  C    0.000000
    12  C    2.270993   0.000000
    13  C    3.679294   2.438892   0.000000
    14  C    3.628010   1.385811   2.850019   0.000000
    15  C    4.629531   2.768666   1.407399   2.437036   0.000000
    16  H    4.236801   3.426093   1.082117   3.932133   2.174199
    17  C    4.603132   2.381966   2.430206   1.404493   1.384508
    18  H    4.147498   2.150323   3.933986   1.084018   3.426153
    19  H    5.657784   3.853635   2.149748   3.417746   1.084980
    20  H    5.621009   3.361332   3.408228   2.143751   2.139754
    21  C    5.816604   7.998305   8.321022   9.383877   9.667751
    22  C    3.847621   6.114884   6.968369   7.475017   8.191102
    23  C    6.114912   8.377774   9.066568   9.742921  10.348371
    24  C    6.968400   9.066572   9.101991  10.448278  10.488026
    25  C    7.474999   9.742874  10.448230  11.101236  11.733824
    26  C    8.191102  10.348347  10.488006  11.733844  11.867483
    27  H    7.075862   9.037137   8.783396  10.398432  10.187679
    28  C    8.399026  10.636628  11.075186  12.015489  12.415505
    29  H    7.921648  10.188488  11.100967  11.515172  12.338302
    30  H    9.108705  11.216297  11.187841  12.597852  12.583716
    31  H    9.443142  11.690427  12.158169  13.065938  13.496950
    32  N    4.458937   6.617242   6.968702   8.003052   8.300981
    33  N    5.096443   7.364111   8.344594   8.696312   9.545845
    34  N    1.437939   2.235865   2.533963   3.556721   3.736334
    35  N    1.388866   1.369448   3.570947   2.500233   4.118269
    36  C    2.477640   2.491668   4.889343   3.105512   5.211178
    37  H    3.200125   2.846414   5.217809   3.153559   5.371950
    38  H    3.199885   2.846648   5.217963   3.154026   5.372255
    39  H    2.548828   3.360547   5.631303   4.156674   6.127763
    40  C    5.546944   7.735439   9.064782   8.983698  10.154991
    41  H    6.230847   8.387047   9.738920   9.613553  10.817853
    42  H    6.231361   8.387541   9.739380   9.614048  10.818323
    43  H    4.829711   6.923707   8.457172   8.113881   9.458228
    44  Co   1.954074   4.219394   5.406383   5.556228   6.501150
                   16         17         18         19         20
    16  H    0.000000
    17  C    3.413014   0.000000
    18  H    5.016102   2.184123   0.000000
    19  H    2.487136   2.147556   4.322371   0.000000
    20  H    4.304234   1.083269   2.498477   2.470154   0.000000
    21  C    8.147888  10.123602   9.963910  10.453901  11.200033
    22  C    7.075862   8.399012   7.921641   9.108693   9.443140
    23  C    9.037158  10.636642  10.188510  11.216311  11.690453
    24  C    8.783409  11.075203  11.100994  11.187851  12.158194
    25  C   10.398411  12.015457  11.515147  12.597822  13.065917
    26  C   10.187678  12.415497  12.338298  12.583708  13.496951
    27  H    8.347318  10.895971  11.134735  10.804511  11.976586
    28  C   10.895975  12.827306  12.515139  13.209710  13.896974
    29  H   11.134737  12.515130  11.838664  13.246651  13.542537
    30  H   10.804515  13.209712  13.246658  13.243972  14.292977
    31  H   11.976583  13.896963  13.542534  14.292968  14.964348
    32  N    6.853502   8.736419   8.604356   9.110305   9.812410
    33  N    8.464701   9.690845   9.053460  10.479542  10.717257
    34  N    2.884915   4.115213   4.384308   4.656020   5.196042
    35  N    4.414366   3.708279   2.825284   5.201519   4.619896
    36  C    5.795638   4.491345   2.900518   6.287975   5.205194
    37  H    6.168788   4.517884   2.752108   6.415410   5.108897
    38  H    6.168873   4.518320   2.752731   6.415723   5.109409
    39  H    6.439400   5.519812   3.994298   7.212349   6.277712
    40  C    9.328624  10.113541   9.175837  11.149771  11.085374
    41  H   10.003396  10.756891   9.773862  11.813230  11.716571
    42  H   10.003836  10.757374   9.774358  11.813693  11.717054
    43  H    8.830468   9.304578   8.230247  10.485577  10.240314
    44  Co   5.734577   6.555750   5.969177   7.487704   7.574563
                   21         22         23         24         25
    21  C    0.000000
    22  C    2.317226   0.000000
    23  C    1.413247   2.271022   0.000000
    24  C    1.380703   3.679338   2.438921   0.000000
    25  C    2.435958   3.627992   1.385766   2.850036   0.000000
    26  C    2.382008   4.629534   2.768643   1.407387   2.437035
    27  H    2.153499   4.236805   3.426085   1.082087   3.932121
    28  C    2.756002   4.603149   2.381956   2.430210   1.404525
    29  H    3.420713   4.147502   2.150307   3.934011   1.084024
    30  H    3.363027   5.657800   3.853628   2.149729   3.417763
    31  H    3.839239   5.621013   3.361307   3.408226   2.143771
    32  N    1.387880   1.437963   2.235895   2.533987   3.556710
    33  N    2.261514   1.388858   1.369474   3.570986   2.500218
    34  N    6.014743   4.458930   6.617263   6.968731   8.003028
    35  N    7.165499   5.096447   7.364144   8.344633   8.696298
    36  C    7.788171   5.546931   7.735456   9.064808   8.983669
    37  H    8.464811   6.231296   8.387509   9.739355   9.613974
    38  H    8.464452   6.230896   8.387123   9.739007   9.613578
    39  H    7.130350   4.829705   6.923730   8.457208   8.113858
    40  C    3.647060   2.477643   2.491679   4.889380   3.105490
    41  H    4.085126   3.199865   2.846666   5.218003   3.154030
    42  H    4.085040   3.200145   2.846412   5.217841   3.153528
    43  H    4.299350   2.548820   3.360559   5.631336   4.156650
    44  Co   4.127740   1.954083   4.219432   5.406428   5.556220
                   26         27         28         29         30
    26  C    0.000000
    27  H    2.174197   0.000000
    28  C    1.384492   3.413003   0.000000
    29  H    3.426147   5.016097   2.184138   0.000000
    30  H    1.084995   2.487138   2.147548   4.322378   0.000000
    31  H    2.139748   4.304227   1.083261   2.498475   2.470157
    32  N    3.736329   2.884899   4.115224   4.384322   4.656024
    33  N    4.118269   4.414361   3.708301   2.825295   5.201533
    34  N    8.300983   6.853510   8.736429   8.604354   9.110318
    35  N    9.545852   8.464709   9.690866   9.053471  10.479561
    36  C   10.154982   9.328616  10.113547   9.175832  11.149774
    37  H   10.818266  10.003776  10.757337   9.774315  11.813648
    38  H   10.817901  10.003450  10.756952   9.773907  11.813289
    39  H    9.458225   8.830467   9.304592   8.230248  10.485587
    40  C    5.211170   5.795634   4.491358   2.900515   6.287983
    41  H    5.372261   6.168871   4.518353   2.752755   6.415744
    42  H    5.371935   6.168783   4.517886   2.752088   6.415410
    43  H    6.127754   6.439391   5.519825   3.994297   7.212354
    44  Co   6.501160   5.734586   6.555775   5.969193   7.487726
                   31         32         33         34         35
    31  H    0.000000
    32  N    5.196044   0.000000
    33  N    4.619902   2.233472   0.000000
    34  N    9.812410   4.629973   5.824279   0.000000
    35  N   10.717265   5.824293   6.249268   2.233459   0.000000
    36  C   11.085366   6.536166   6.483913   3.617109   1.427491
    37  H   11.717005   7.226084   7.128569   4.220775   2.093722
    38  H   11.716614   7.225740   7.128178   4.220665   2.093755
    39  H   10.240312   5.968750   5.620449   3.921000   2.062786
    40  C    5.205189   3.617132   1.427496   6.536163   6.483928
    41  H    5.109426   4.220676   2.093767   7.225672   7.128131
    42  H    5.108879   4.220803   2.093722   7.226138   7.128635
    43  H    6.277708   3.921016   2.062779   5.968738   5.620458
    44  Co   7.574575   2.887805   3.144763   2.887783   3.144758
                   36         37         38         39         40
    36  C    0.000000
    37  H    1.097615   0.000000
    38  H    1.097618   1.790341   0.000000
    39  H    1.094137   1.771178   1.771199   0.000000
    40  C    6.401308   6.983369   6.982938   5.403390   0.000000
    41  H    6.982884   7.642299   7.429151   5.969261   1.097617
    42  H    6.983412   7.430197   7.642383   5.969692   1.097612
    43  H    5.403385   5.969639   5.969316   4.374021   1.094139
    44  Co   3.662647   4.386445   4.386055   3.096848   3.662666
                   41         42         43         44
    41  H    0.000000
    42  H    1.790341   0.000000
    43  H    1.771200   1.771174   0.000000
    44  Co   4.386023   4.386505   3.096857   0.000000
 Symmetry turned off by external request.
 Stoichiometry    C22H17CoN4
 Framework group  C1[X(C22H17CoN4)]
 Deg. of freedom   126
 Full point group                 C1      NOp   1
 Rotational constants (GHZ):           0.4623594           0.1002935           0.0825030
 General basis read from cards:  (5D, 7F)
 ======================================================================================================
                                       Pseudopotential Parameters
 ======================================================================================================
  Center     Atomic      Valence      Angular      Power
  Number     Number     Electrons     Momentum     of R      Exponent        Coefficient   SO-Coeffient
 ======================================================================================================
    1          6
                                   No pseudopotential on this center.
    2          6
                                   No pseudopotential on this center.
    3          6
                                   No pseudopotential on this center.
    4          6
                                   No pseudopotential on this center.
    5          6
                                   No pseudopotential on this center.
    6          6
                                   No pseudopotential on this center.
    7          1
                                   No pseudopotential on this center.
    8          1
                                   No pseudopotential on this center.
    9          1
                                   No pseudopotential on this center.
   10          6
                                   No pseudopotential on this center.
   11          6
                                   No pseudopotential on this center.
   12          6
                                   No pseudopotential on this center.
   13          6
                                   No pseudopotential on this center.
   14          6
                                   No pseudopotential on this center.
   15          6
                                   No pseudopotential on this center.
   16          1
                                   No pseudopotential on this center.
   17          6
                                   No pseudopotential on this center.
   18          1
                                   No pseudopotential on this center.
   19          1
                                   No pseudopotential on this center.
   20          1
                                   No pseudopotential on this center.
   21          6
                                   No pseudopotential on this center.
   22          6
                                   No pseudopotential on this center.
   23          6
                                   No pseudopotential on this center.
   24          6
                                   No pseudopotential on this center.
   25          6
                                   No pseudopotential on this center.
   26          6
                                   No pseudopotential on this center.
   27          1
                                   No pseudopotential on this center.
   28          6
                                   No pseudopotential on this center.
   29          1
                                   No pseudopotential on this center.
   30          1
                                   No pseudopotential on this center.
   31          1
                                   No pseudopotential on this center.
   32          7
                                   No pseudopotential on this center.
   33          7
                                   No pseudopotential on this center.
   34          7
                                   No pseudopotential on this center.
   35          7
                                   No pseudopotential on this center.
   36          6
                                   No pseudopotential on this center.
   37          1
                                   No pseudopotential on this center.
   38          1
                                   No pseudopotential on this center.
   39          1
                                   No pseudopotential on this center.
   40          6
                                   No pseudopotential on this center.
   41          1
                                   No pseudopotential on this center.
   42          1
                                   No pseudopotential on this center.
   43          1
                                   No pseudopotential on this center.
   44         27           17
                                      F and up 
                                                     2        1.0000000        0.00000000    0.00000000
                                      S - F
                                                     2       23.6600000      283.96056600    0.00000000
                                                     2       10.6100000       47.15684600    0.00000000
                                      P - F
                                                     2       25.0400000      182.21223600    0.00000000
                                                     2       10.4400000       35.23335200    0.00000000
                                      D - F
                                                     2       29.5400000      -26.47533300    0.00000000
                                                     2       10.1800000       -1.82578700    0.00000000
 ======================================================================================================
   441 basis functions,   871 primitive gaussians,   473 cartesian basis functions
    97 alpha electrons       97 beta electrons
       nuclear repulsion energy      2483.9724490861 Hartrees.
 NAtoms=   44 NActive=   44 NUniq=   44 SFac= 1.00D+00 NAtFMM=   60 NAOKFM=F Big=F
 Integral buffers will be    131072 words long.
 Raffenetti 2 integral format.
 Two-electron integral symmetry is turned off.
 Nuclear repulsion after empirical dispersion term =     2483.9133720560 Hartrees.
 One-electron integrals computed using PRISM.
   1 Symmetry operations used in ECPInt.
 ECPInt:  NShTT=   11781 NPrTT=   71406 LenC2=    9520 LenP2D=   32028.
 LDataN:  DoStor=T MaxTD1= 6 Len=  172
 NBasis=   441 RedAO= T EigKep=  3.14D-04  NBF=   441
 NBsUse=   441 1.00D-06 EigRej= -1.00D+00 NBFU=   441
 Initial guess from the checkpoint file:  "a.chk"
 B after Tr=    -0.000000    0.000207   -0.000002
         Rot=    1.000000   -0.000000   -0.000000    0.000000 Ang=  -0.00 deg.
 Initial guess <Sx>= 0.0000 <Sy>= 0.0000 <Sz>= 0.0000 <S**2>= 0.0000 S= 0.0000
 Requested convergence on RMS density matrix=1.00D-08 within  64 cycles.
 Requested convergence on MAX density matrix=1.00D-06.
 Requested convergence on             energy=1.00D-06.
 No special actions if energy rises.
 SCF Done:  E(UPBE1PBE) =  -1212.10389293     A.U. after   20 cycles
            NFock= 20  Conv=0.28D-08     -V/T= 2.0551
 <Sx>= 0.0000 <Sy>= 0.0000 <Sz>= 0.0000 <S**2>= 0.0000 S= 0.0000
 <L.S>=  0.00000000000    
 Annihilation of the first spin contaminant:
 S**2 before annihilation     0.0000,   after     0.0000
 QCSCF skips out because SCF is already converged.

 **********************************************************************

            Population analysis using the SCF Density.

 **********************************************************************

 Alpha  occ. eigenvalues --  -14.45826 -14.45825 -14.45270 -14.45270 -10.28398
 Alpha  occ. eigenvalues --  -10.28398 -10.27663 -10.27663 -10.27434 -10.27433
 Alpha  occ. eigenvalues --  -10.27344 -10.27344 -10.25333 -10.25332 -10.24126
 Alpha  occ. eigenvalues --  -10.24126 -10.23931 -10.23931 -10.23463 -10.23463
 Alpha  occ. eigenvalues --  -10.23404 -10.23404 -10.21429 -10.21426 -10.21041
 Alpha  occ. eigenvalues --  -10.19254  -3.83023  -2.34750  -2.34708  -2.30957
 Alpha  occ. eigenvalues --   -1.05988  -1.05925  -0.97247  -0.96930  -0.88275
 Alpha  occ. eigenvalues --   -0.88012  -0.85147  -0.80468  -0.78888  -0.78013
 Alpha  occ. eigenvalues --   -0.77864  -0.75600  -0.75064  -0.73139  -0.71760
 Alpha  occ. eigenvalues --   -0.66659  -0.65264  -0.64563  -0.64268  -0.62632
 Alpha  occ. eigenvalues --   -0.61513  -0.58985  -0.57274  -0.56740  -0.54177
 Alpha  occ. eigenvalues --   -0.53303  -0.52112  -0.49772  -0.49714  -0.49076
 Alpha  occ. eigenvalues --   -0.48663  -0.47869  -0.47430  -0.46664  -0.46275
 Alpha  occ. eigenvalues --   -0.45829  -0.45416  -0.45034  -0.44711  -0.44176
 Alpha  occ. eigenvalues --   -0.42536  -0.41927  -0.41074  -0.38642  -0.38410
 Alpha  occ. eigenvalues --   -0.38233  -0.37588  -0.36949  -0.36938  -0.36519
 Alpha  occ. eigenvalues --   -0.34988  -0.34763  -0.34479  -0.33961  -0.31707
 Alpha  occ. eigenvalues --   -0.28981  -0.26698  -0.25879  -0.24778  -0.24477
 Alpha  occ. eigenvalues --   -0.21328  -0.21045  -0.20374  -0.20063  -0.16404
 Alpha  occ. eigenvalues --   -0.15222  -0.14786
 Alpha virt. eigenvalues --   -0.04535  -0.02516  -0.00699  -0.00126   0.00825
 Alpha virt. eigenvalues --    0.01303   0.02062   0.03282   0.05377   0.05904
 Alpha virt. eigenvalues --    0.06095   0.07299   0.08902   0.09316   0.10130
 Alpha virt. eigenvalues --    0.10443   0.12655   0.13149   0.14244   0.14248
 Alpha virt. eigenvalues --    0.15313   0.15561   0.15886   0.16026   0.16505
 Alpha virt. eigenvalues --    0.16811   0.17084   0.17575   0.17854   0.18281
 Alpha virt. eigenvalues --    0.19209   0.19263   0.19744   0.20345   0.22143
 Alpha virt. eigenvalues --    0.22365   0.22404   0.22722   0.22969   0.23881
 Alpha virt. eigenvalues --    0.25902   0.26076   0.26648   0.27566   0.27917
 Alpha virt. eigenvalues --    0.28539   0.29339   0.29440   0.30785   0.31002
 Alpha virt. eigenvalues --    0.31662   0.33289   0.33720   0.34435   0.34670
 Alpha virt. eigenvalues --    0.36235   0.37685   0.38148   0.39591   0.39628
 Alpha virt. eigenvalues --    0.41592   0.43166   0.44665   0.45032   0.46156
 Alpha virt. eigenvalues --    0.47293   0.47994   0.50078   0.51287   0.51711
 Alpha virt. eigenvalues --    0.52678   0.53520   0.53733   0.55904   0.55958
 Alpha virt. eigenvalues --    0.56849   0.56966   0.56967   0.58118   0.58385
 Alpha virt. eigenvalues --    0.58625   0.59075   0.59279   0.60074   0.61433
 Alpha virt. eigenvalues --    0.61533   0.61873   0.63066   0.63233   0.63290
 Alpha virt. eigenvalues --    0.63354   0.63371   0.63378   0.64006   0.64914
 Alpha virt. eigenvalues --    0.65262   0.66042   0.66466   0.66920   0.67033
 Alpha virt. eigenvalues --    0.67651   0.68372   0.68401   0.69967   0.70901
 Alpha virt. eigenvalues --    0.72295   0.73336   0.73915   0.75656   0.76193
 Alpha virt. eigenvalues --    0.76508   0.77158   0.78229   0.79585   0.80032
 Alpha virt. eigenvalues --    0.80986   0.81896   0.82721   0.83293   0.83817
 Alpha virt. eigenvalues --    0.84293   0.84452   0.85033   0.86757   0.86777
 Alpha virt. eigenvalues --    0.86961   0.87403   0.87696   0.89938   0.90031
 Alpha virt. eigenvalues --    0.90462   0.91538   0.91659   0.92215   0.92914
 Alpha virt. eigenvalues --    0.93579   0.93650   0.95656   0.95676   0.95921
 Alpha virt. eigenvalues --    0.95986   0.97269   0.97767   0.98063   0.98359
 Alpha virt. eigenvalues --    0.98366   1.00099   1.00366   1.01691   1.02069
 Alpha virt. eigenvalues --    1.02908   1.03161   1.04056   1.06496   1.07323
 Alpha virt. eigenvalues --    1.09257   1.09923   1.11124   1.11251   1.13827
 Alpha virt. eigenvalues --    1.15016   1.15951   1.16133   1.16905   1.18554
 Alpha virt. eigenvalues --    1.18570   1.19322   1.19926   1.23655   1.24128
 Alpha virt. eigenvalues --    1.24499   1.25390   1.27118   1.27329   1.27404
 Alpha virt. eigenvalues --    1.29002   1.29154   1.30107   1.32741   1.33391
 Alpha virt. eigenvalues --    1.33851   1.36029   1.36196   1.37011   1.38878
 Alpha virt. eigenvalues --    1.40406   1.41843   1.42689   1.42729   1.43653
 Alpha virt. eigenvalues --    1.44824   1.45332   1.45516   1.46323   1.47900
 Alpha virt. eigenvalues --    1.47962   1.49242   1.49912   1.49936   1.51197
 Alpha virt. eigenvalues --    1.51278   1.51673   1.53269   1.54036   1.57238
 Alpha virt. eigenvalues --    1.57273   1.59273   1.62164   1.65826   1.66136
 Alpha virt. eigenvalues --    1.66241   1.70423   1.72454   1.72736   1.77344
 Alpha virt. eigenvalues --    1.77605   1.78517   1.79800   1.79830   1.82115
 Alpha virt. eigenvalues --    1.82955   1.86015   1.86725   1.86938   1.87582
 Alpha virt. eigenvalues --    1.87910   1.89257   1.89900   1.91530   1.91668
 Alpha virt. eigenvalues --    1.93396   1.95014   1.95161   1.96635   1.97091
 Alpha virt. eigenvalues --    1.98085   1.98355   1.98388   1.99170   1.99177
 Alpha virt. eigenvalues --    1.99762   1.99982   2.01271   2.02585   2.03976
 Alpha virt. eigenvalues --    2.06538   2.07300   2.07315   2.09099   2.10627
 Alpha virt. eigenvalues --    2.12472   2.13410   2.14284   2.15149   2.15185
 Alpha virt. eigenvalues --    2.16363   2.16586   2.16783   2.19108   2.19899
 Alpha virt. eigenvalues --    2.20422   2.21478   2.21920   2.21978   2.23269
 Alpha virt. eigenvalues --    2.24909   2.25485   2.25770   2.27072   2.27648
 Alpha virt. eigenvalues --    2.27847   2.28231   2.28420   2.28709   2.29101
 Alpha virt. eigenvalues --    2.32754   2.34572   2.39471   2.39552   2.40455
 Alpha virt. eigenvalues --    2.40635   2.44280   2.44644   2.45873   2.46817
 Alpha virt. eigenvalues --    2.51780   2.51934   2.52141   2.57390   2.58735
 Alpha virt. eigenvalues --    2.58936   2.59420   2.60153   2.61596   2.61819
 Alpha virt. eigenvalues --    2.64421   2.64841   2.66259   2.68140   2.68943
 Alpha virt. eigenvalues --    2.69707   2.70159   2.72356   2.73131   2.75169
 Alpha virt. eigenvalues --    2.75348   2.75456   2.77248   2.78788   2.79271
 Alpha virt. eigenvalues --    2.80083   2.83535   2.85479   2.88430   2.88749
 Alpha virt. eigenvalues --    2.93886   2.94190   2.97192   2.99177   3.00380
 Alpha virt. eigenvalues --    3.01933   3.06317   3.06862   3.15584   3.19240
 Alpha virt. eigenvalues --    3.19964   3.30500   3.39314   3.47161   3.47730
 Alpha virt. eigenvalues --    3.52584   3.53168   3.61207   5.66819   5.67171
 Alpha virt. eigenvalues --    5.67497   5.68335   5.68865   5.69798   5.71852
 Alpha virt. eigenvalues --   45.82238  45.95903  46.01982  63.11673
  Beta  occ. eigenvalues --  -14.45826 -14.45825 -14.45270 -14.45270 -10.28398
  Beta  occ. eigenvalues --  -10.28398 -10.27663 -10.27663 -10.27434 -10.27433
  Beta  occ. eigenvalues --  -10.27344 -10.27344 -10.25333 -10.25332 -10.24126
  Beta  occ. eigenvalues --  -10.24126 -10.23931 -10.23931 -10.23463 -10.23463
  Beta  occ. eigenvalues --  -10.23404 -10.23404 -10.21429 -10.21426 -10.21041
  Beta  occ. eigenvalues --  -10.19254  -3.83023  -2.34750  -2.34708  -2.30958
  Beta  occ. eigenvalues --   -1.05988  -1.05925  -0.97247  -0.96930  -0.88275
  Beta  occ. eigenvalues --   -0.88012  -0.85147  -0.80468  -0.78888  -0.78013
  Beta  occ. eigenvalues --   -0.77864  -0.75600  -0.75064  -0.73139  -0.71760
  Beta  occ. eigenvalues --   -0.66659  -0.65264  -0.64563  -0.64268  -0.62632
  Beta  occ. eigenvalues --   -0.61513  -0.58985  -0.57274  -0.56740  -0.54177
  Beta  occ. eigenvalues --   -0.53303  -0.52112  -0.49772  -0.49714  -0.49076
  Beta  occ. eigenvalues --   -0.48663  -0.47869  -0.47430  -0.46664  -0.46275
  Beta  occ. eigenvalues --   -0.45829  -0.45416  -0.45034  -0.44711  -0.44176
  Beta  occ. eigenvalues --   -0.42536  -0.41927  -0.41074  -0.38642  -0.38410
  Beta  occ. eigenvalues --   -0.38233  -0.37588  -0.36949  -0.36938  -0.36519
  Beta  occ. eigenvalues --   -0.34988  -0.34763  -0.34479  -0.33961  -0.31707
  Beta  occ. eigenvalues --   -0.28981  -0.26698  -0.25879  -0.24778  -0.24477
  Beta  occ. eigenvalues --   -0.21328  -0.21045  -0.20374  -0.20063  -0.16404
  Beta  occ. eigenvalues --   -0.15222  -0.14786
  Beta virt. eigenvalues --   -0.04535  -0.02516  -0.00699  -0.00126   0.00825
  Beta virt. eigenvalues --    0.01303   0.02062   0.03282   0.05377   0.05904
  Beta virt. eigenvalues --    0.06095   0.07299   0.08902   0.09316   0.10130
  Beta virt. eigenvalues --    0.10443   0.12655   0.13149   0.14244   0.14248
  Beta virt. eigenvalues --    0.15313   0.15561   0.15886   0.16026   0.16505
  Beta virt. eigenvalues --    0.16811   0.17084   0.17575   0.17854   0.18281
  Beta virt. eigenvalues --    0.19209   0.19263   0.19744   0.20345   0.22143
  Beta virt. eigenvalues --    0.22365   0.22404   0.22722   0.22969   0.23881
  Beta virt. eigenvalues --    0.25902   0.26076   0.26648   0.27566   0.27917
  Beta virt. eigenvalues --    0.28539   0.29339   0.29440   0.30785   0.31002
  Beta virt. eigenvalues --    0.31662   0.33289   0.33720   0.34435   0.34670
  Beta virt. eigenvalues --    0.36235   0.37685   0.38148   0.39591   0.39628
  Beta virt. eigenvalues --    0.41592   0.43166   0.44665   0.45032   0.46156
  Beta virt. eigenvalues --    0.47293   0.47994   0.50078   0.51287   0.51711
  Beta virt. eigenvalues --    0.52678   0.53520   0.53733   0.55904   0.55958
  Beta virt. eigenvalues --    0.56849   0.56966   0.56967   0.58118   0.58385
  Beta virt. eigenvalues --    0.58625   0.59075   0.59279   0.60074   0.61433
  Beta virt. eigenvalues --    0.61533   0.61873   0.63066   0.63233   0.63290
  Beta virt. eigenvalues --    0.63354   0.63371   0.63378   0.64006   0.64914
  Beta virt. eigenvalues --    0.65262   0.66042   0.66466   0.66920   0.67033
  Beta virt. eigenvalues --    0.67651   0.68372   0.68401   0.69967   0.70901
  Beta virt. eigenvalues --    0.72295   0.73336   0.73915   0.75656   0.76193
  Beta virt. eigenvalues --    0.76508   0.77158   0.78229   0.79585   0.80032
  Beta virt. eigenvalues --    0.80986   0.81896   0.82721   0.83293   0.83817
  Beta virt. eigenvalues --    0.84293   0.84452   0.85033   0.86757   0.86777
  Beta virt. eigenvalues --    0.86961   0.87403   0.87696   0.89938   0.90031
  Beta virt. eigenvalues --    0.90462   0.91538   0.91659   0.92215   0.92914
  Beta virt. eigenvalues --    0.93579   0.93650   0.95656   0.95676   0.95921
  Beta virt. eigenvalues --    0.95986   0.97269   0.97767   0.98063   0.98359
  Beta virt. eigenvalues --    0.98366   1.00099   1.00366   1.01691   1.02069
  Beta virt. eigenvalues --    1.02908   1.03161   1.04056   1.06496   1.07323
  Beta virt. eigenvalues --    1.09257   1.09923   1.11124   1.11251   1.13827
  Beta virt. eigenvalues --    1.15016   1.15951   1.16133   1.16905   1.18554
  Beta virt. eigenvalues --    1.18570   1.19322   1.19926   1.23655   1.24128
  Beta virt. eigenvalues --    1.24499   1.25390   1.27118   1.27329   1.27404
  Beta virt. eigenvalues --    1.29002   1.29154   1.30107   1.32741   1.33391
  Beta virt. eigenvalues --    1.33851   1.36029   1.36196   1.37011   1.38878
  Beta virt. eigenvalues --    1.40406   1.41843   1.42689   1.42729   1.43653
  Beta virt. eigenvalues --    1.44824   1.45332   1.45516   1.46323   1.47900
  Beta virt. eigenvalues --    1.47962   1.49242   1.49912   1.49936   1.51197
  Beta virt. eigenvalues --    1.51278   1.51673   1.53269   1.54036   1.57238
  Beta virt. eigenvalues --    1.57273   1.59273   1.62164   1.65826   1.66136
  Beta virt. eigenvalues --    1.66241   1.70423   1.72454   1.72736   1.77344
  Beta virt. eigenvalues --    1.77605   1.78517   1.79800   1.79830   1.82115
  Beta virt. eigenvalues --    1.82955   1.86015   1.86725   1.86938   1.87582
  Beta virt. eigenvalues --    1.87910   1.89257   1.89900   1.91530   1.91668
  Beta virt. eigenvalues --    1.93396   1.95014   1.95161   1.96635   1.97091
  Beta virt. eigenvalues --    1.98085   1.98355   1.98388   1.99170   1.99177
  Beta virt. eigenvalues --    1.99762   1.99982   2.01271   2.02585   2.03976
  Beta virt. eigenvalues --    2.06538   2.07300   2.07315   2.09099   2.10627
  Beta virt. eigenvalues --    2.12472   2.13410   2.14284   2.15149   2.15185
  Beta virt. eigenvalues --    2.16363   2.16586   2.16783   2.19108   2.19899
  Beta virt. eigenvalues --    2.20422   2.21478   2.21920   2.21978   2.23269
  Beta virt. eigenvalues --    2.24909   2.25485   2.25770   2.27072   2.27648
  Beta virt. eigenvalues --    2.27847   2.28231   2.28420   2.28709   2.29101
  Beta virt. eigenvalues --    2.32754   2.34572   2.39471   2.39552   2.40455
  Beta virt. eigenvalues --    2.40635   2.44280   2.44644   2.45873   2.46817
  Beta virt. eigenvalues --    2.51780   2.51934   2.52141   2.57390   2.58735
  Beta virt. eigenvalues --    2.58936   2.59420   2.60153   2.61596   2.61819
  Beta virt. eigenvalues --    2.64421   2.64841   2.66259   2.68140   2.68943
  Beta virt. eigenvalues --    2.69707   2.70159   2.72356   2.73131   2.75169
  Beta virt. eigenvalues --    2.75348   2.75456   2.77248   2.78788   2.79271
  Beta virt. eigenvalues --    2.80083   2.83535   2.85479   2.88430   2.88749
  Beta virt. eigenvalues --    2.93886   2.94190   2.97192   2.99177   3.00380
  Beta virt. eigenvalues --    3.01933   3.06317   3.06862   3.15584   3.19240
  Beta virt. eigenvalues --    3.19964   3.30500   3.39314   3.47161   3.47730
  Beta virt. eigenvalues --    3.52584   3.53168   3.61207   5.66819   5.67171
  Beta virt. eigenvalues --    5.67497   5.68335   5.68865   5.69798   5.71852
  Beta virt. eigenvalues --   45.82238  45.95903  46.01982  63.11673
          Condensed to atoms (all electrons):
               1          2          3          4          5          6
     1  C    5.100540   0.526029  -0.058806  -0.064514  -0.058808   0.526044
     2  C    0.526029   4.616994   0.516288  -0.021280  -0.041259  -0.019912
     3  C   -0.058806   0.516288   5.056737   0.538870  -0.028004  -0.041259
     4  C   -0.064514  -0.021280   0.538870   4.911198   0.538862  -0.021279
     5  C   -0.058808  -0.041259  -0.028004   0.538862   5.056756   0.516289
     6  C    0.526044  -0.019912  -0.041259  -0.021279   0.516289   4.616961
     7  H    0.007082  -0.041015   0.337720  -0.040681   0.003912   0.000974
     8  H    0.001684   0.002913  -0.036623   0.364891  -0.036623   0.002913
     9  H    0.007082   0.000973   0.003912  -0.040681   0.337720  -0.041013
    10  C    0.005451  -0.000041   0.000003   0.000122  -0.004597  -0.045773
    11  C    0.004465   0.001823  -0.000029   0.000032   0.003016  -0.061365
    12  C   -0.000610   0.000002  -0.000000   0.000001   0.000097   0.007035
    13  C    0.000136   0.000000  -0.000001   0.000045   0.002125  -0.003201
    14  C    0.000003  -0.000000   0.000000  -0.000000   0.000003  -0.000026
    15  C    0.000002  -0.000000   0.000000  -0.000001   0.000077   0.000066
    16  H   -0.000023   0.000001   0.000001   0.000087   0.000108   0.000840
    17  C   -0.000000   0.000000   0.000000   0.000000  -0.000001  -0.000002
    18  H   -0.000000   0.000000   0.000000   0.000000  -0.000000   0.000002
    19  H   -0.000000   0.000000  -0.000000   0.000000   0.000001  -0.000003
    20  H    0.000000  -0.000000   0.000000  -0.000000  -0.000000  -0.000000
    21  C    0.005451  -0.045779  -0.004596   0.000122   0.000003  -0.000041
    22  C    0.004465  -0.061367   0.003016   0.000032  -0.000029   0.001824
    23  C   -0.000610   0.007034   0.000097   0.000001  -0.000000   0.000002
    24  C    0.000136  -0.003200   0.002124   0.000045  -0.000001   0.000000
    25  C    0.000003  -0.000026   0.000003  -0.000000   0.000000  -0.000000
    26  C    0.000002   0.000066   0.000077  -0.000001   0.000000  -0.000000
    27  H   -0.000023   0.000840   0.000109   0.000087   0.000001   0.000001
    28  C   -0.000000  -0.000002  -0.000001   0.000000   0.000000   0.000000
    29  H   -0.000000   0.000002  -0.000000   0.000000   0.000000   0.000000
    30  H   -0.000000  -0.000003   0.000001   0.000000  -0.000000   0.000000
    31  H    0.000000  -0.000000  -0.000000  -0.000000   0.000000  -0.000000
    32  N   -0.042194   0.247277  -0.078670   0.004726  -0.000069   0.006036
    33  N    0.001630   0.006202  -0.000149   0.000002   0.000000  -0.000035
    34  N   -0.042197   0.006036  -0.000069   0.004726  -0.078673   0.247271
    35  N    0.001630  -0.000035   0.000000   0.000002  -0.000149   0.006201
    36  C   -0.000009   0.000000   0.000000  -0.000000   0.000002  -0.000030
    37  H   -0.000001  -0.000000   0.000000   0.000000  -0.000000   0.000003
    38  H   -0.000001  -0.000000   0.000000   0.000000  -0.000000   0.000003
    39  H   -0.000011   0.000001   0.000000  -0.000000   0.000000  -0.000006
    40  C   -0.000009  -0.000030   0.000002  -0.000000   0.000000   0.000000
    41  H   -0.000001   0.000003  -0.000000   0.000000   0.000000  -0.000000
    42  H   -0.000001   0.000003  -0.000000   0.000000   0.000000  -0.000000
    43  H   -0.000011  -0.000006   0.000000  -0.000000   0.000000   0.000001
    44  Co   0.252175  -0.055588   0.007213   0.002681   0.007213  -0.055587
               7          8          9         10         11         12
     1  C    0.007082   0.001684   0.007082   0.005451   0.004465  -0.000610
     2  C   -0.041015   0.002913   0.000973  -0.000041   0.001823   0.000002
     3  C    0.337720  -0.036623   0.003912   0.000003  -0.000029  -0.000000
     4  C   -0.040681   0.364891  -0.040681   0.000122   0.000032   0.000001
     5  C    0.003912  -0.036623   0.337720  -0.004597   0.003016   0.000097
     6  C    0.000974   0.002913  -0.041013  -0.045773  -0.061365   0.007035
     7  H    0.578500  -0.004063  -0.000077  -0.000000  -0.000001   0.000000
     8  H   -0.004063   0.553784  -0.004062  -0.000003   0.000001  -0.000000
     9  H   -0.000077  -0.004062   0.578496   0.000445  -0.000196  -0.000047
    10  C   -0.000000  -0.000003   0.000445   4.642603  -0.066303   0.515164
    11  C   -0.000001   0.000001  -0.000196  -0.066303   4.796590  -0.054245
    12  C    0.000000  -0.000000  -0.000047   0.515164  -0.054245   4.659837
    13  C   -0.000000   0.000002  -0.000470   0.539479   0.004366  -0.056047
    14  C   -0.000000   0.000000  -0.000000  -0.049457   0.004832   0.533936
    15  C   -0.000000   0.000000   0.000115  -0.006198  -0.000053  -0.037913
    16  H    0.000000  -0.000010   0.006534  -0.033163  -0.000156   0.003736
    17  C    0.000000  -0.000000   0.000002  -0.039428  -0.000057  -0.009113
    18  H    0.000000  -0.000000  -0.000000   0.004049  -0.000209  -0.037744
    19  H    0.000000   0.000000  -0.000008   0.001905   0.000003   0.000932
    20  H   -0.000000  -0.000000   0.000000   0.000907   0.000003   0.002387
    21  C    0.000446  -0.000003  -0.000000  -0.000000  -0.000007   0.000000
    22  C   -0.000196   0.000001  -0.000001  -0.000007  -0.012196  -0.000001
    23  C   -0.000047  -0.000000   0.000000   0.000000  -0.000001  -0.000000
    24  C   -0.000471   0.000002  -0.000000   0.000000   0.000000   0.000000
    25  C   -0.000000   0.000000  -0.000000  -0.000000   0.000000   0.000000
    26  C    0.000115   0.000000  -0.000000  -0.000000  -0.000000   0.000000
    27  H    0.006534  -0.000010   0.000000   0.000000   0.000000  -0.000000
    28  C    0.000002  -0.000000   0.000000   0.000000  -0.000000  -0.000000
    29  H   -0.000000  -0.000000   0.000000   0.000000   0.000000  -0.000000
    30  H   -0.000008   0.000000   0.000000   0.000000   0.000000  -0.000000
    31  H    0.000000  -0.000000  -0.000000   0.000000   0.000000   0.000000
    32  N   -0.003311  -0.000097   0.000009   0.000000   0.000245   0.000000
    33  N   -0.000000  -0.000000  -0.000000   0.000000   0.000026   0.000000
    34  N    0.000009  -0.000097  -0.003312   0.256143   0.349121  -0.041035
    35  N   -0.000000  -0.000000  -0.000000  -0.047485   0.302121   0.261660
    36  C   -0.000000   0.000000  -0.000000   0.005479  -0.044892  -0.048307
    37  H    0.000000  -0.000000   0.000000  -0.000137   0.000570  -0.000997
    38  H    0.000000  -0.000000   0.000000  -0.000137   0.000564  -0.000994
    39  H    0.000000   0.000000   0.000000   0.000017   0.000553   0.002585
    40  C   -0.000000   0.000000  -0.000000  -0.000000   0.000013   0.000000
    41  H    0.000000  -0.000000   0.000000  -0.000000  -0.000000  -0.000000
    42  H    0.000000  -0.000000   0.000000  -0.000000  -0.000000  -0.000000
    43  H    0.000000   0.000000   0.000000  -0.000000  -0.000002  -0.000000
    44  Co  -0.000758   0.000118  -0.000758   0.007345   0.364926   0.005738
              13         14         15         16         17         18
     1  C    0.000136   0.000003   0.000002  -0.000023  -0.000000  -0.000000
     2  C    0.000000  -0.000000  -0.000000   0.000001   0.000000   0.000000
     3  C   -0.000001   0.000000   0.000000   0.000001   0.000000   0.000000
     4  C    0.000045  -0.000000  -0.000001   0.000087   0.000000   0.000000
     5  C    0.002125   0.000003   0.000077   0.000108  -0.000001  -0.000000
     6  C   -0.003201  -0.000026   0.000066   0.000840  -0.000002   0.000002
     7  H   -0.000000  -0.000000  -0.000000   0.000000   0.000000   0.000000
     8  H    0.000002   0.000000   0.000000  -0.000010  -0.000000  -0.000000
     9  H   -0.000470  -0.000000   0.000115   0.006534   0.000002  -0.000000
    10  C    0.539479  -0.049457  -0.006198  -0.033163  -0.039428   0.004049
    11  C    0.004366   0.004832  -0.000053  -0.000156  -0.000057  -0.000209
    12  C   -0.056047   0.533936  -0.037913   0.003736  -0.009113  -0.037744
    13  C    5.019046  -0.044353   0.509853   0.355449  -0.036971   0.000279
    14  C   -0.044353   5.028541  -0.036354   0.000427   0.517389   0.362204
    15  C    0.509853  -0.036354   4.896358  -0.035185   0.556177   0.003760
    16  H    0.355449   0.000427  -0.035185   0.508814   0.003620   0.000013
    17  C   -0.036971   0.517389   0.556177   0.003620   4.889285  -0.034782
    18  H    0.000279   0.362204   0.003760   0.000013  -0.034782   0.531980
    19  H   -0.035603   0.003857   0.369045  -0.003806  -0.035676  -0.000139
    20  H    0.004059  -0.037190  -0.036619  -0.000146   0.368751  -0.004173
    21  C    0.000000  -0.000000  -0.000000   0.000000   0.000000   0.000000
    22  C    0.000000   0.000000  -0.000000   0.000000  -0.000000   0.000000
    23  C    0.000000   0.000000   0.000000  -0.000000  -0.000000  -0.000000
    24  C    0.000000  -0.000000   0.000000   0.000000   0.000000   0.000000
    25  C   -0.000000  -0.000000   0.000000  -0.000000  -0.000000   0.000000
    26  C    0.000000   0.000000  -0.000000  -0.000000  -0.000000   0.000000
    27  H    0.000000  -0.000000  -0.000000   0.000000   0.000000  -0.000000
    28  C    0.000000  -0.000000  -0.000000   0.000000   0.000000   0.000000
    29  H    0.000000   0.000000   0.000000  -0.000000   0.000000  -0.000000
    30  H   -0.000000  -0.000000   0.000000  -0.000000   0.000000   0.000000
    31  H   -0.000000   0.000000   0.000000  -0.000000   0.000000   0.000000
    32  N   -0.000000  -0.000000   0.000000   0.000000   0.000000  -0.000000
    33  N    0.000000  -0.000000   0.000000   0.000000   0.000000  -0.000000
    34  N   -0.076431   0.009467   0.005180  -0.005098  -0.000172  -0.000100
    35  N    0.009444  -0.082447  -0.000185  -0.000095   0.005429  -0.007437
    36  C   -0.000115  -0.002759   0.000009   0.000003  -0.000108   0.004339
    37  H   -0.000009   0.002509  -0.000001  -0.000000  -0.000005   0.000515
    38  H   -0.000009   0.002507  -0.000001  -0.000000  -0.000005   0.000513
    39  H    0.000005   0.000008  -0.000000  -0.000000   0.000001  -0.000033
    40  C    0.000000   0.000000  -0.000000   0.000000   0.000000  -0.000000
    41  H   -0.000000  -0.000000   0.000000  -0.000000   0.000000  -0.000000
    42  H   -0.000000  -0.000000   0.000000  -0.000000   0.000000  -0.000000
    43  H   -0.000000   0.000000  -0.000000   0.000000  -0.000000   0.000000
    44  Co  -0.001261  -0.001404   0.000167   0.000043   0.000155   0.000026
              19         20         21         22         23         24
     1  C   -0.000000   0.000000   0.005451   0.004465  -0.000610   0.000136
     2  C    0.000000  -0.000000  -0.045779  -0.061367   0.007034  -0.003200
     3  C   -0.000000   0.000000  -0.004596   0.003016   0.000097   0.002124
     4  C    0.000000  -0.000000   0.000122   0.000032   0.000001   0.000045
     5  C    0.000001  -0.000000   0.000003  -0.000029  -0.000000  -0.000001
     6  C   -0.000003  -0.000000  -0.000041   0.001824   0.000002   0.000000
     7  H    0.000000  -0.000000   0.000446  -0.000196  -0.000047  -0.000471
     8  H    0.000000  -0.000000  -0.000003   0.000001  -0.000000   0.000002
     9  H   -0.000008   0.000000  -0.000000  -0.000001   0.000000  -0.000000
    10  C    0.001905   0.000907  -0.000000  -0.000007   0.000000   0.000000
    11  C    0.000003   0.000003  -0.000007  -0.012196  -0.000001   0.000000
    12  C    0.000932   0.002387   0.000000  -0.000001  -0.000000   0.000000
    13  C   -0.035603   0.004059   0.000000   0.000000   0.000000   0.000000
    14  C    0.003857  -0.037190  -0.000000   0.000000   0.000000  -0.000000
    15  C    0.369045  -0.036619  -0.000000  -0.000000   0.000000   0.000000
    16  H   -0.003806  -0.000146   0.000000   0.000000  -0.000000   0.000000
    17  C   -0.035676   0.368751   0.000000  -0.000000  -0.000000   0.000000
    18  H   -0.000139  -0.004173   0.000000   0.000000  -0.000000   0.000000
    19  H    0.529748  -0.004628   0.000000   0.000000  -0.000000  -0.000000
    20  H   -0.004628   0.536105   0.000000   0.000000   0.000000  -0.000000
    21  C    0.000000   0.000000   4.642678  -0.066307   0.515164   0.539467
    22  C    0.000000   0.000000  -0.066307   4.796597  -0.054239   0.004365
    23  C   -0.000000   0.000000   0.515164  -0.054239   4.659779  -0.056039
    24  C   -0.000000  -0.000000   0.539467   0.004365  -0.056039   5.019000
    25  C   -0.000000   0.000000  -0.049462   0.004833   0.533946  -0.044350
    26  C    0.000000   0.000000  -0.006203  -0.000053  -0.037912   0.509867
    27  H   -0.000000  -0.000000  -0.033166  -0.000156   0.003736   0.355455
    28  C    0.000000   0.000000  -0.039428  -0.000057  -0.009110  -0.036973
    29  H    0.000000   0.000000   0.004049  -0.000209  -0.037743   0.000279
    30  H    0.000000   0.000000   0.001905   0.000003   0.000932  -0.035606
    31  H    0.000000   0.000000   0.000907   0.000003   0.002386   0.004058
    32  N    0.000000   0.000000   0.256153   0.349110  -0.041039  -0.076420
    33  N   -0.000000  -0.000000  -0.047483   0.302124   0.261654   0.009443
    34  N   -0.000094   0.000003   0.000000   0.000245   0.000000  -0.000000
    35  N    0.000004  -0.000104   0.000000   0.000026   0.000000   0.000000
    36  C   -0.000000  -0.000002  -0.000000   0.000013   0.000000   0.000000
    37  H   -0.000000  -0.000000  -0.000000  -0.000000  -0.000000  -0.000000
    38  H   -0.000000  -0.000000  -0.000000  -0.000000  -0.000000  -0.000000
    39  H   -0.000000  -0.000000  -0.000000  -0.000002  -0.000000  -0.000000
    40  C    0.000000  -0.000000   0.005480  -0.044892  -0.048307  -0.000115
    41  H   -0.000000   0.000000  -0.000137   0.000564  -0.000993  -0.000009
    42  H   -0.000000   0.000000  -0.000137   0.000570  -0.000998  -0.000009
    43  H   -0.000000   0.000000   0.000017   0.000554   0.002585   0.000005
    44  Co   0.000014  -0.000012   0.007345   0.364926   0.005738  -0.001261
              25         26         27         28         29         30
     1  C    0.000003   0.000002  -0.000023  -0.000000  -0.000000  -0.000000
     2  C   -0.000026   0.000066   0.000840  -0.000002   0.000002  -0.000003
     3  C    0.000003   0.000077   0.000109  -0.000001  -0.000000   0.000001
     4  C   -0.000000  -0.000001   0.000087   0.000000   0.000000   0.000000
     5  C    0.000000   0.000000   0.000001   0.000000   0.000000  -0.000000
     6  C   -0.000000  -0.000000   0.000001   0.000000   0.000000   0.000000
     7  H   -0.000000   0.000115   0.006534   0.000002  -0.000000  -0.000008
     8  H    0.000000   0.000000  -0.000010  -0.000000  -0.000000   0.000000
     9  H   -0.000000  -0.000000   0.000000   0.000000   0.000000   0.000000
    10  C   -0.000000  -0.000000   0.000000   0.000000   0.000000   0.000000
    11  C    0.000000  -0.000000   0.000000  -0.000000   0.000000   0.000000
    12  C    0.000000   0.000000  -0.000000  -0.000000  -0.000000  -0.000000
    13  C   -0.000000   0.000000   0.000000   0.000000   0.000000  -0.000000
    14  C   -0.000000   0.000000  -0.000000  -0.000000   0.000000  -0.000000
    15  C    0.000000  -0.000000  -0.000000  -0.000000   0.000000   0.000000
    16  H   -0.000000  -0.000000   0.000000   0.000000  -0.000000  -0.000000
    17  C   -0.000000  -0.000000   0.000000   0.000000   0.000000   0.000000
    18  H    0.000000   0.000000  -0.000000   0.000000  -0.000000   0.000000
    19  H   -0.000000   0.000000  -0.000000   0.000000   0.000000   0.000000
    20  H    0.000000   0.000000  -0.000000   0.000000   0.000000   0.000000
    21  C   -0.049462  -0.006203  -0.033166  -0.039428   0.004049   0.001905
    22  C    0.004833  -0.000053  -0.000156  -0.000057  -0.000209   0.000003
    23  C    0.533946  -0.037912   0.003736  -0.009110  -0.037743   0.000932
    24  C   -0.044350   0.509867   0.355455  -0.036973   0.000279  -0.035606
    25  C    5.028578  -0.036354   0.000427   0.517373   0.362203   0.003857
    26  C   -0.036354   4.896341  -0.035185   0.556181   0.003760   0.369042
    27  H    0.000427  -0.035185   0.508813   0.003620   0.000013  -0.003806
    28  C    0.517373   0.556181   0.003620   4.889294  -0.034780  -0.035677
    29  H    0.362203   0.003760   0.000013  -0.034780   0.531976  -0.000139
    30  H    0.003857   0.369042  -0.003806  -0.035677  -0.000139   0.529756
    31  H   -0.037188  -0.036619  -0.000146   0.368752  -0.004173  -0.004628
    32  N    0.009467   0.005179  -0.005098  -0.000172  -0.000100  -0.000094
    33  N   -0.082453  -0.000185  -0.000095   0.005429  -0.007437   0.000004
    34  N   -0.000000   0.000000   0.000000   0.000000  -0.000000   0.000000
    35  N   -0.000000   0.000000   0.000000   0.000000  -0.000000  -0.000000
    36  C    0.000000  -0.000000   0.000000   0.000000  -0.000000   0.000000
    37  H   -0.000000   0.000000  -0.000000   0.000000  -0.000000  -0.000000
    38  H   -0.000000   0.000000  -0.000000   0.000000  -0.000000  -0.000000
    39  H    0.000000  -0.000000   0.000000  -0.000000   0.000000  -0.000000
    40  C   -0.002759   0.000009   0.000003  -0.000108   0.004340  -0.000000
    41  H    0.002507  -0.000001  -0.000000  -0.000005   0.000513  -0.000000
    42  H    0.002509  -0.000001  -0.000000  -0.000005   0.000515  -0.000000
    43  H    0.000008  -0.000000  -0.000000   0.000001  -0.000033  -0.000000
    44  Co  -0.001404   0.000167   0.000043   0.000155   0.000026   0.000014
              31         32         33         34         35         36
     1  C    0.000000  -0.042194   0.001630  -0.042197   0.001630  -0.000009
     2  C   -0.000000   0.247277   0.006202   0.006036  -0.000035   0.000000
     3  C   -0.000000  -0.078670  -0.000149  -0.000069   0.000000   0.000000
     4  C   -0.000000   0.004726   0.000002   0.004726   0.000002  -0.000000
     5  C    0.000000  -0.000069   0.000000  -0.078673  -0.000149   0.000002
     6  C   -0.000000   0.006036  -0.000035   0.247271   0.006201  -0.000030
     7  H    0.000000  -0.003311  -0.000000   0.000009  -0.000000  -0.000000
     8  H   -0.000000  -0.000097  -0.000000  -0.000097  -0.000000   0.000000
     9  H   -0.000000   0.000009  -0.000000  -0.003312  -0.000000  -0.000000
    10  C    0.000000   0.000000   0.000000   0.256143  -0.047485   0.005479
    11  C    0.000000   0.000245   0.000026   0.349121   0.302121  -0.044892
    12  C    0.000000   0.000000   0.000000  -0.041035   0.261660  -0.048307
    13  C   -0.000000  -0.000000   0.000000  -0.076431   0.009444  -0.000115
    14  C    0.000000  -0.000000  -0.000000   0.009467  -0.082447  -0.002759
    15  C    0.000000   0.000000   0.000000   0.005180  -0.000185   0.000009
    16  H   -0.000000   0.000000   0.000000  -0.005098  -0.000095   0.000003
    17  C    0.000000   0.000000   0.000000  -0.000172   0.005429  -0.000108
    18  H    0.000000  -0.000000  -0.000000  -0.000100  -0.007437   0.004339
    19  H    0.000000   0.000000  -0.000000  -0.000094   0.000004  -0.000000
    20  H    0.000000   0.000000  -0.000000   0.000003  -0.000104  -0.000002
    21  C    0.000907   0.256153  -0.047483   0.000000   0.000000  -0.000000
    22  C    0.000003   0.349110   0.302124   0.000245   0.000026   0.000013
    23  C    0.002386  -0.041039   0.261654   0.000000   0.000000   0.000000
    24  C    0.004058  -0.076420   0.009443  -0.000000   0.000000   0.000000
    25  C   -0.037188   0.009467  -0.082453  -0.000000  -0.000000   0.000000
    26  C   -0.036619   0.005179  -0.000185   0.000000   0.000000  -0.000000
    27  H   -0.000146  -0.005098  -0.000095   0.000000   0.000000   0.000000
    28  C    0.368752  -0.000172   0.005429   0.000000   0.000000   0.000000
    29  H   -0.004173  -0.000100  -0.007437  -0.000000  -0.000000  -0.000000
    30  H   -0.004628  -0.000094   0.000004   0.000000  -0.000000   0.000000
    31  H    0.536100   0.000003  -0.000104   0.000000  -0.000000  -0.000000
    32  N    0.000003   7.221231  -0.059945  -0.000033   0.000000   0.000000
    33  N   -0.000104  -0.059945   7.063185   0.000000  -0.000000  -0.000000
    34  N    0.000000  -0.000033   0.000000   7.221278  -0.059948   0.004569
    35  N   -0.000000   0.000000  -0.000000  -0.059948   7.063164   0.300170
    36  C   -0.000000   0.000000  -0.000000   0.004569   0.300170   5.061133
    37  H    0.000000   0.000000   0.000000  -0.000067  -0.041571   0.377107
    38  H    0.000000   0.000000   0.000000  -0.000067  -0.041574   0.377113
    39  H    0.000000  -0.000000   0.000001   0.000160  -0.031794   0.376084
    40  C   -0.000002   0.004569   0.300168   0.000000  -0.000000   0.000000
    41  H   -0.000000  -0.000067  -0.041573   0.000000   0.000000  -0.000000
    42  H   -0.000000  -0.000067  -0.041571   0.000000   0.000000  -0.000000
    43  H   -0.000000   0.000160  -0.031795  -0.000000   0.000001  -0.000001
    44  Co  -0.000012  -0.072744  -0.055066  -0.072747  -0.055066  -0.007459
              37         38         39         40         41         42
     1  C   -0.000001  -0.000001  -0.000011  -0.000009  -0.000001  -0.000001
     2  C   -0.000000  -0.000000   0.000001  -0.000030   0.000003   0.000003
     3  C    0.000000   0.000000   0.000000   0.000002  -0.000000  -0.000000
     4  C    0.000000   0.000000  -0.000000  -0.000000   0.000000   0.000000
     5  C   -0.000000  -0.000000   0.000000   0.000000   0.000000   0.000000
     6  C    0.000003   0.000003  -0.000006   0.000000  -0.000000  -0.000000
     7  H    0.000000   0.000000   0.000000  -0.000000   0.000000   0.000000
     8  H   -0.000000  -0.000000   0.000000   0.000000  -0.000000  -0.000000
     9  H    0.000000   0.000000   0.000000  -0.000000   0.000000   0.000000
    10  C   -0.000137  -0.000137   0.000017  -0.000000  -0.000000  -0.000000
    11  C    0.000570   0.000564   0.000553   0.000013  -0.000000  -0.000000
    12  C   -0.000997  -0.000994   0.002585   0.000000  -0.000000  -0.000000
    13  C   -0.000009  -0.000009   0.000005   0.000000  -0.000000  -0.000000
    14  C    0.002509   0.002507   0.000008   0.000000  -0.000000  -0.000000
    15  C   -0.000001  -0.000001  -0.000000  -0.000000   0.000000   0.000000
    16  H   -0.000000  -0.000000  -0.000000   0.000000  -0.000000  -0.000000
    17  C   -0.000005  -0.000005   0.000001   0.000000   0.000000   0.000000
    18  H    0.000515   0.000513  -0.000033  -0.000000  -0.000000  -0.000000
    19  H   -0.000000  -0.000000  -0.000000   0.000000  -0.000000  -0.000000
    20  H   -0.000000  -0.000000  -0.000000  -0.000000   0.000000   0.000000
    21  C   -0.000000  -0.000000  -0.000000   0.005480  -0.000137  -0.000137
    22  C   -0.000000  -0.000000  -0.000002  -0.044892   0.000564   0.000570
    23  C   -0.000000  -0.000000  -0.000000  -0.048307  -0.000993  -0.000998
    24  C   -0.000000  -0.000000  -0.000000  -0.000115  -0.000009  -0.000009
    25  C   -0.000000  -0.000000   0.000000  -0.002759   0.002507   0.002509
    26  C    0.000000   0.000000  -0.000000   0.000009  -0.000001  -0.000001
    27  H   -0.000000  -0.000000   0.000000   0.000003  -0.000000  -0.000000
    28  C    0.000000   0.000000  -0.000000  -0.000108  -0.000005  -0.000005
    29  H   -0.000000  -0.000000   0.000000   0.004340   0.000513   0.000515
    30  H   -0.000000  -0.000000  -0.000000  -0.000000  -0.000000  -0.000000
    31  H    0.000000   0.000000   0.000000  -0.000002  -0.000000  -0.000000
    32  N    0.000000   0.000000  -0.000000   0.004569  -0.000067  -0.000067
    33  N    0.000000   0.000000   0.000001   0.300168  -0.041573  -0.041571
    34  N   -0.000067  -0.000067   0.000160   0.000000   0.000000   0.000000
    35  N   -0.041571  -0.041574  -0.031794  -0.000000   0.000000   0.000000
    36  C    0.377107   0.377113   0.376084   0.000000  -0.000000  -0.000000
    37  H    0.523788  -0.039458  -0.025199  -0.000000   0.000000  -0.000000
    38  H   -0.039458   0.523783  -0.025206  -0.000000  -0.000000   0.000000
    39  H   -0.025199  -0.025206   0.467593  -0.000001   0.000000   0.000000
    40  C   -0.000000  -0.000000  -0.000001   5.061131   0.377114   0.377107
    41  H    0.000000  -0.000000   0.000000   0.377114   0.523782  -0.039458
    42  H   -0.000000   0.000000   0.000000   0.377107  -0.039458   0.523787
    43  H    0.000000   0.000000  -0.000024   0.376084  -0.025206  -0.025198
    44  Co   0.000674   0.000676   0.008519  -0.007459   0.000677   0.000673
              43         44
     1  C   -0.000011   0.252175
     2  C   -0.000006  -0.055588
     3  C    0.000000   0.007213
     4  C   -0.000000   0.002681
     5  C    0.000000   0.007213
     6  C    0.000001  -0.055587
     7  H    0.000000  -0.000758
     8  H    0.000000   0.000118
     9  H    0.000000  -0.000758
    10  C   -0.000000   0.007345
    11  C   -0.000002   0.364926
    12  C   -0.000000   0.005738
    13  C   -0.000000  -0.001261
    14  C    0.000000  -0.001404
    15  C   -0.000000   0.000167
    16  H    0.000000   0.000043
    17  C   -0.000000   0.000155
    18  H    0.000000   0.000026
    19  H   -0.000000   0.000014
    20  H    0.000000  -0.000012
    21  C    0.000017   0.007345
    22  C    0.000554   0.364926
    23  C    0.002585   0.005738
    24  C    0.000005  -0.001261
    25  C    0.000008  -0.001404
    26  C   -0.000000   0.000167
    27  H   -0.000000   0.000043
    28  C    0.000001   0.000155
    29  H   -0.000033   0.000026
    30  H   -0.000000   0.000014
    31  H   -0.000000  -0.000012
    32  N    0.000160  -0.072744
    33  N   -0.031795  -0.055066
    34  N   -0.000000  -0.072747
    35  N    0.000001  -0.055066
    36  C   -0.000001  -0.007459
    37  H    0.000000   0.000674
    38  H    0.000000   0.000676
    39  H   -0.000024   0.008519
    40  C    0.376084  -0.007459
    41  H   -0.025206   0.000677
    42  H   -0.025198   0.000673
    43  H    0.467595   0.008519
    44  Co   0.008519  16.497876
          Atomic-Atomic Spin Densities.
               1          2          3          4          5          6
     1  C    0.000002  -0.000000  -0.000000  -0.000000  -0.000000  -0.000000
     2  C   -0.000000  -0.000000   0.000000   0.000000   0.000000  -0.000000
     3  C   -0.000000   0.000000   0.000000  -0.000000  -0.000000   0.000000
     4  C   -0.000000   0.000000  -0.000000   0.000000  -0.000000   0.000000
     5  C   -0.000000   0.000000  -0.000000  -0.000000   0.000000   0.000000
     6  C   -0.000000  -0.000000   0.000000   0.000000   0.000000  -0.000000
     7  H    0.000000  -0.000000  -0.000000  -0.000000   0.000000  -0.000000
     8  H    0.000000  -0.000000   0.000000   0.000000   0.000000  -0.000000
     9  H    0.000000  -0.000000   0.000000  -0.000000  -0.000000  -0.000000
    10  C    0.000000  -0.000000  -0.000000   0.000000   0.000000   0.000000
    11  C   -0.000000   0.000000  -0.000000   0.000000  -0.000000  -0.000000
    12  C   -0.000000  -0.000000   0.000000   0.000000   0.000000   0.000000
    13  C    0.000000   0.000000  -0.000000   0.000000   0.000000   0.000000
    14  C    0.000000  -0.000000  -0.000000   0.000000   0.000000   0.000000
    15  C    0.000000   0.000000  -0.000000   0.000000  -0.000000  -0.000000
    16  H    0.000000  -0.000000   0.000000  -0.000000  -0.000000  -0.000000
    17  C   -0.000000  -0.000000   0.000000   0.000000   0.000000  -0.000000
    18  H   -0.000000   0.000000   0.000000  -0.000000  -0.000000  -0.000000
    19  H   -0.000000  -0.000000   0.000000  -0.000000   0.000000   0.000000
    20  H    0.000000  -0.000000  -0.000000   0.000000   0.000000   0.000000
    21  C    0.000000   0.000000   0.000000   0.000000  -0.000000  -0.000000
    22  C   -0.000000  -0.000000  -0.000000   0.000000  -0.000000   0.000000
    23  C   -0.000000   0.000000   0.000000   0.000000   0.000000  -0.000000
    24  C    0.000000   0.000000   0.000000   0.000000  -0.000000   0.000000
    25  C    0.000000   0.000000   0.000000   0.000000  -0.000000  -0.000000
    26  C    0.000000  -0.000000  -0.000000   0.000000  -0.000000   0.000000
    27  H    0.000000  -0.000000  -0.000000  -0.000000   0.000000  -0.000000
    28  C   -0.000000  -0.000000   0.000000   0.000000   0.000000  -0.000000
    29  H   -0.000000  -0.000000  -0.000000  -0.000000   0.000000   0.000000
    30  H   -0.000000   0.000000   0.000000  -0.000000   0.000000  -0.000000
    31  H    0.000000   0.000000   0.000000   0.000000  -0.000000  -0.000000
    32  N    0.000000   0.000000  -0.000000  -0.000000   0.000000  -0.000000
    33  N    0.000000   0.000000   0.000000   0.000000  -0.000000  -0.000000
    34  N    0.000000  -0.000000   0.000000  -0.000000  -0.000000   0.000000
    35  N    0.000000  -0.000000  -0.000000   0.000000   0.000000   0.000000
    36  C    0.000000  -0.000000  -0.000000   0.000000  -0.000000   0.000000
    37  H   -0.000000   0.000000  -0.000000  -0.000000  -0.000000  -0.000000
    38  H   -0.000000   0.000000  -0.000000  -0.000000  -0.000000   0.000000
    39  H   -0.000000  -0.000000  -0.000000  -0.000000  -0.000000   0.000000
    40  C    0.000000   0.000000  -0.000000   0.000000  -0.000000  -0.000000
    41  H   -0.000000   0.000000  -0.000000  -0.000000  -0.000000   0.000000
    42  H   -0.000000  -0.000000  -0.000000  -0.000000  -0.000000   0.000000
    43  H   -0.000000   0.000000  -0.000000  -0.000000  -0.000000  -0.000000
    44  Co  -0.000000   0.000000  -0.000000  -0.000000  -0.000000   0.000000
               7          8          9         10         11         12
     1  C    0.000000   0.000000   0.000000   0.000000  -0.000000  -0.000000
     2  C   -0.000000  -0.000000  -0.000000  -0.000000   0.000000  -0.000000
     3  C   -0.000000   0.000000   0.000000  -0.000000  -0.000000   0.000000
     4  C   -0.000000   0.000000  -0.000000   0.000000   0.000000   0.000000
     5  C    0.000000   0.000000  -0.000000   0.000000  -0.000000   0.000000
     6  C   -0.000000  -0.000000  -0.000000   0.000000  -0.000000   0.000000
     7  H    0.000000   0.000000   0.000000  -0.000000   0.000000  -0.000000
     8  H    0.000000  -0.000000   0.000000  -0.000000   0.000000  -0.000000
     9  H    0.000000   0.000000   0.000000  -0.000000   0.000000  -0.000000
    10  C   -0.000000  -0.000000  -0.000000  -0.000000   0.000000  -0.000000
    11  C    0.000000   0.000000   0.000000   0.000000   0.000000   0.000000
    12  C   -0.000000  -0.000000  -0.000000  -0.000000   0.000000  -0.000000
    13  C   -0.000000   0.000000  -0.000000   0.000000   0.000000  -0.000000
    14  C   -0.000000  -0.000000  -0.000000  -0.000000  -0.000000  -0.000000
    15  C   -0.000000   0.000000  -0.000000  -0.000000  -0.000000   0.000000
    16  H    0.000000  -0.000000   0.000000  -0.000000   0.000000  -0.000000
    17  C   -0.000000  -0.000000  -0.000000   0.000000   0.000000  -0.000000
    18  H    0.000000   0.000000   0.000000   0.000000   0.000000   0.000000
    19  H   -0.000000  -0.000000  -0.000000   0.000000   0.000000  -0.000000
    20  H   -0.000000  -0.000000  -0.000000  -0.000000  -0.000000   0.000000
    21  C   -0.000000  -0.000000  -0.000000   0.000000   0.000000  -0.000000
    22  C    0.000000   0.000000   0.000000   0.000000   0.000000   0.000000
    23  C   -0.000000  -0.000000  -0.000000  -0.000000   0.000000   0.000000
    24  C   -0.000000   0.000000  -0.000000   0.000000  -0.000000   0.000000
    25  C   -0.000000  -0.000000  -0.000000   0.000000  -0.000000  -0.000000
    26  C   -0.000000   0.000000  -0.000000   0.000000   0.000000  -0.000000
    27  H    0.000000  -0.000000   0.000000  -0.000000   0.000000  -0.000000
    28  C   -0.000000  -0.000000  -0.000000  -0.000000   0.000000  -0.000000
    29  H    0.000000   0.000000   0.000000  -0.000000   0.000000   0.000000
    30  H   -0.000000  -0.000000  -0.000000  -0.000000  -0.000000   0.000000
    31  H   -0.000000  -0.000000  -0.000000   0.000000  -0.000000  -0.000000
    32  N    0.000000  -0.000000   0.000000  -0.000000   0.000000   0.000000
    33  N   -0.000000  -0.000000  -0.000000   0.000000  -0.000000  -0.000000
    34  N    0.000000  -0.000000   0.000000  -0.000000  -0.000000   0.000000
    35  N   -0.000000  -0.000000  -0.000000   0.000000  -0.000000  -0.000000
    36  C   -0.000000   0.000000   0.000000   0.000000  -0.000000   0.000000
    37  H    0.000000   0.000000   0.000000   0.000000   0.000000   0.000000
    38  H    0.000000   0.000000   0.000000   0.000000   0.000000   0.000000
    39  H    0.000000   0.000000   0.000000   0.000000   0.000000   0.000000
    40  C    0.000000   0.000000  -0.000000   0.000000  -0.000000  -0.000000
    41  H    0.000000   0.000000   0.000000  -0.000000  -0.000000   0.000000
    42  H    0.000000   0.000000   0.000000  -0.000000   0.000000   0.000000
    43  H    0.000000   0.000000   0.000000  -0.000000   0.000000   0.000000
    44  Co   0.000000   0.000000   0.000000   0.000000   0.000000   0.000000
              13         14         15         16         17         18
     1  C    0.000000   0.000000   0.000000   0.000000  -0.000000  -0.000000
     2  C    0.000000  -0.000000   0.000000  -0.000000  -0.000000   0.000000
     3  C   -0.000000  -0.000000  -0.000000   0.000000   0.000000   0.000000
     4  C    0.000000   0.000000   0.000000  -0.000000   0.000000  -0.000000
     5  C    0.000000   0.000000  -0.000000  -0.000000   0.000000  -0.000000
     6  C    0.000000   0.000000  -0.000000  -0.000000  -0.000000  -0.000000
     7  H   -0.000000  -0.000000  -0.000000   0.000000  -0.000000   0.000000
     8  H    0.000000  -0.000000   0.000000  -0.000000  -0.000000   0.000000
     9  H   -0.000000  -0.000000  -0.000000   0.000000  -0.000000   0.000000
    10  C    0.000000  -0.000000  -0.000000  -0.000000   0.000000   0.000000
    11  C    0.000000  -0.000000  -0.000000   0.000000   0.000000   0.000000
    12  C   -0.000000  -0.000000   0.000000  -0.000000  -0.000000   0.000000
    13  C    0.000000   0.000000  -0.000000  -0.000000  -0.000000  -0.000000
    14  C    0.000000   0.000000  -0.000000  -0.000000  -0.000000  -0.000000
    15  C   -0.000000  -0.000000   0.000000   0.000000   0.000000   0.000000
[...]
              Bcc     0.0000     0.000     0.000     0.000  0.9117 -0.4082  0.0466
 
              Baa    -0.0000    -0.000    -0.000    -0.000  0.6518  0.5818  0.4864
    41 H(1)   Bbb     0.0000     0.000     0.000     0.000 -0.6626  0.7490 -0.0080
              Bcc     0.0000     0.000     0.000     0.000 -0.3690 -0.3171  0.8737
 
              Baa    -0.0000    -0.000    -0.000    -0.000  0.7576  0.4957 -0.4247
    42 H(1)   Bbb     0.0000     0.000     0.000     0.000 -0.6272  0.7330 -0.2633
              Bcc     0.0000     0.000     0.000     0.000  0.1808  0.4658  0.8662
 
              Baa    -0.0000    -0.000    -0.000    -0.000  0.5000  0.8560 -0.1312
    43 H(1)   Bbb     0.0000     0.000     0.000     0.000 -0.0151  0.1600  0.9870
              Bcc     0.0000     0.000     0.000     0.000  0.8659 -0.4915  0.0929
 
              Baa    -0.0000    -0.004    -0.001    -0.001 -0.0001  0.9404  0.3401
    44 Co(59) Bbb    -0.0000    -0.002    -0.001    -0.001 -0.0002 -0.3401  0.9404
              Bcc     0.0000     0.005     0.002     0.002  1.0000 -0.0000  0.0002
 

 ---------------------------------------------------------------------------------

   1 Symmetry operations used in ECPInt.
 ECPInt:  NShTT=   11781 NPrTT=   71406 LenC2=    9520 LenP2D=   32028.
 LDataN:  DoStor=T MaxTD1= 7 Len=  274
 Calling FoFJK, ICntrl=      2127 FMM=F ISym2X=0 I1Cent= 0 IOpClX= 1 NMat=1 NMatS=1 NMatT=0.
 -------------------------------------------------------------------
 Center     Atomic                   Forces (Hartrees/Bohr)
 Number     Number              X              Y              Z
 -------------------------------------------------------------------
      1        6          -0.000019239   -0.112014748   -0.000003470
      2        6           0.079416152    0.050535602    0.000005888
      3        6          -0.007368721    0.002517059   -0.000001269
      4        6           0.000007784    0.006942977   -0.000001343
      5        6           0.007356469    0.002534906   -0.000001251
      6        6          -0.079375933    0.050508662    0.000004339
      7        1          -0.002480490    0.009187236   -0.000000614
      8        1           0.000000061    0.001719763    0.000000449
      9        1           0.002481129    0.009185960   -0.000000556
     10        6          -0.011942257   -0.004574869   -0.000000187
     11        6          -0.000130048    0.005030302   -0.000013589
     12        6           0.015186574    0.005986188   -0.000001394
     13        6           0.012984628    0.001555085   -0.000001768
     14        6           0.002271557    0.007817006   -0.000000998
     15        6          -0.014545719    0.008824630    0.000001548
     16        1           0.000569220    0.000763549   -0.000000347
     17        6           0.001123477   -0.015225242    0.000000153
     18        1           0.002346059   -0.000211093    0.000000168
     19        1           0.001016431   -0.000272699   -0.000000237
     20        1           0.002203253    0.000259573   -0.000000024
     21        6           0.011884353   -0.004497882   -0.000001368
     22        6           0.000131698    0.005031749   -0.000017416
     23        6          -0.015125106    0.005978333   -0.000002004
     24        6          -0.012943093    0.001478123   -0.000001183
     25        6          -0.002327334    0.007826060   -0.000001345
     26        6           0.014533984    0.008851942    0.000000714
     27        1          -0.000564920    0.000783658   -0.000000188
     28        6          -0.001103775   -0.015255634    0.000000656
     29        1          -0.002342066   -0.000207550   -0.000000064
     30        1          -0.001011790   -0.000280512   -0.000000229
     31        1          -0.002207956    0.000259528    0.000000055
     32        7          -0.021352807   -0.069548317    0.000009106
     33        7           0.031582457    0.023537643    0.000012835
     34        7           0.021341888   -0.069511627    0.000005461
     35        7          -0.031597728    0.023538803    0.000009960
     36        6           0.000488515   -0.011106155   -0.000002307
     37        1           0.001029682    0.001470684    0.001250288
     38        1           0.001029739    0.001471633   -0.001250243
     39        1           0.000561475    0.003221626    0.000001556
     40        6          -0.000480921   -0.011102155   -0.000002454
     41        1          -0.001030525    0.001472297   -0.001249396
     42        1          -0.001031011    0.001470184    0.001248867
     43        1          -0.000562923    0.003220422    0.000001779
     44       27          -0.000002222    0.060827301    0.000001418
 -------------------------------------------------------------------
 Cartesian Forces:  Max     0.112014748 RMS     0.019605257

 GradGradGradGradGradGradGradGradGradGradGradGradGradGradGradGradGradGrad
 Berny optimization.
 Search for a local minimum.
 Step number   1 out of a maximum of    2
 All quantities printed in internal units (Hartrees-Bohrs-Radians)
 Second derivative matrix not updated -- first step.
 ITU=  0
     Eigenvalues ---    0.00055   0.00056   0.00199   0.00248   0.00248
     Eigenvalues ---    0.00388   0.00446   0.00612   0.00657   0.00670
     Eigenvalues ---    0.00671   0.00818   0.00845   0.01325   0.01569
     Eigenvalues ---    0.01812   0.02042   0.02072   0.02553   0.02565
     Eigenvalues ---    0.03069   0.03142   0.04099   0.04203   0.04458
     Eigenvalues ---    0.04506   0.04683   0.05375   0.05532   0.06152
     Eigenvalues ---    0.06232   0.06926   0.06953   0.07080   0.07082
     Eigenvalues ---    0.07086   0.07316   0.07681   0.07749   0.09590
     Eigenvalues ---    0.10002   0.10170   0.10380   0.11581   0.11919
     Eigenvalues ---    0.12000   0.12243   0.12395   0.12861   0.13365
     Eigenvalues ---    0.13373   0.13429   0.13678   0.14810   0.15402
     Eigenvalues ---    0.15571   0.15886   0.19620   0.20099   0.20306
     Eigenvalues ---    0.21011   0.21922   0.24048   0.24867   0.28558
     Eigenvalues ---    0.29557   0.29858   0.30770   0.30880   0.31800
     Eigenvalues ---    0.31887   0.35006   0.35173   0.36798   0.37674
     Eigenvalues ---    0.37937   0.41321   0.41688   0.44523   0.47579
     Eigenvalues ---    0.48584   0.48980   0.49368   0.51034   0.51920
     Eigenvalues ---    0.53956   0.55039   0.55373   0.62970   0.63053
     Eigenvalues ---    0.69187   0.71422   0.72842   0.74309   0.87161
     Eigenvalues ---    0.90194   0.91029   0.91099   0.93191   0.94524
     Eigenvalues ---    0.95427   0.97128   0.99770   1.04294   1.12680
     Eigenvalues ---    1.15874   1.16355   1.19006   1.20991   1.24425
     Eigenvalues ---    1.31472   1.38077   1.38489   1.46622   1.47399
     Eigenvalues ---    1.50287   1.51248   1.54257   1.61271   1.64816
     Eigenvalues ---    1.66591   1.67676   1.78849   1.79864   1.87799
     Eigenvalues ---    1.91888
 Quadratic step=7.372D-01 exceeds max=3.000D-01 adjusted using Lamda=-1.028D-01.
 Angle between NR and scaled steps=  46.54 degrees.
 Angle between quadratic step and forces=  37.15 degrees.
 Linear search not attempted -- first point.
 B after Tr=    -0.000000   -0.000780   -0.000001
         Rot=    1.000000   -0.000000   -0.000000   -0.000000 Ang=  -0.00 deg.
 Variable       Old X    -DE/DX   Delta X   Delta X   Delta X     New X
                                 (Linear)    (Quad)   (Total)
    X1        0.00001  -0.00002   0.00000  -0.00001  -0.00001   0.00000
    Y1        1.57953  -0.11201   0.00000  -0.18406  -0.18484   1.39469
    Z1        0.00015  -0.00000   0.00000  -0.00001  -0.00001   0.00015
    X2       -2.44694   0.07942   0.00000   0.09395   0.09395  -2.35298
    Y2        2.56924   0.05054   0.00000  -0.01455  -0.01533   2.55391
    Z2        0.00002   0.00001   0.00000   0.00002   0.00002   0.00004
    X3       -2.36046  -0.00737   0.00000   0.01908   0.01908  -2.34139
    Y3        5.20511   0.00252   0.00000   0.00764   0.00686   5.21197
    Z3       -0.00002  -0.00000   0.00000   0.00000   0.00000  -0.00001
    X4       -0.00000   0.00001   0.00000   0.00000   0.00000   0.00000
    Y4        6.40967   0.00694   0.00000   0.03384   0.03306   6.44273
    Z4        0.00002  -0.00000   0.00000  -0.00001  -0.00000   0.00002
    X5        2.36048   0.00736   0.00000  -0.01908  -0.01908   2.34140
    Y5        5.20510   0.00253   0.00000   0.00765   0.00687   5.21197
    Z5        0.00007  -0.00000   0.00000   0.00000   0.00000   0.00007
    X6        2.44691  -0.07938   0.00000  -0.09394  -0.09394   2.35297
    Y6        2.56926   0.05051   0.00000  -0.01456  -0.01534   2.55392
    Z6        0.00009   0.00000   0.00000   0.00002   0.00002   0.00011
    X7       -4.07987  -0.00248   0.00000   0.00866   0.00866  -4.07122
    Y7        6.29814   0.00919   0.00000   0.02443   0.02365   6.32180
    Z7       -0.00007  -0.00000   0.00000  -0.00000  -0.00000  -0.00008
    X8        0.00000   0.00000   0.00000   0.00000   0.00000   0.00000
    Y8        8.45944   0.00172   0.00000   0.03009   0.02931   8.48874
    Z8       -0.00002   0.00000   0.00000  -0.00000  -0.00000  -0.00002
    X9        4.07988   0.00248   0.00000  -0.00866  -0.00866   4.07122
    Y9        6.29814   0.00919   0.00000   0.02444   0.02366   6.32180
    Z9        0.00010  -0.00000   0.00000  -0.00001  -0.00000   0.00009
   X10        6.98981  -0.01194   0.00000  -0.02795  -0.02796   6.96185
   Y10        1.09934  -0.00457   0.00000  -0.01191  -0.01269   1.08665
   Z10       -0.00005  -0.00000   0.00000   0.00000   0.00000  -0.00005
   X11        3.63549  -0.00013   0.00000  -0.03586  -0.03586   3.59962
   Y11       -1.71561   0.00503   0.00000   0.00433   0.00355  -1.71207
   Z11        0.00024  -0.00001   0.00000  -0.00003  -0.00003   0.00021
   X12        7.91583   0.01519   0.00000  -0.00378  -0.00378   7.91205
   Y12       -1.40565   0.00599   0.00000   0.00818   0.00740  -1.39825
   Z12       -0.00017  -0.00000   0.00000   0.00000   0.00000  -0.00017
   X13        8.60012   0.01298   0.00000  -0.00830  -0.00831   8.59181
   Y13        3.15210   0.00156   0.00000  -0.00407  -0.00485   3.14725
   Z13       -0.00011  -0.00000   0.00000  -0.00000  -0.00000  -0.00011
   X14       10.48918   0.00227   0.00000  -0.00065  -0.00065  10.48853
   Y14       -1.89149   0.00782   0.00000   0.00617   0.00539  -1.88611
   Z14       -0.00037  -0.00000   0.00000  -0.00000  -0.00000  -0.00037
   X15       11.21315  -0.01455   0.00000  -0.02075  -0.02075  11.19239
   Y15        2.65658   0.00882   0.00000   0.00031  -0.00047   2.65611
   Z15       -0.00032   0.00000   0.00000   0.00000   0.00000  -0.00032
   X16        7.88707   0.00057   0.00000   0.00176   0.00176   7.88883
   Y16        5.06866   0.00076   0.00000   0.00118   0.00040   5.06906
   Z16        0.00001  -0.00000   0.00000  -0.00000  -0.00000   0.00001
   X17       12.12004   0.00112   0.00000  -0.00093  -0.00093  12.11911
   Y17        0.20244  -0.01523   0.00000  -0.01114  -0.01192   0.19052
   Z17       -0.00046   0.00000   0.00000   0.00000   0.00000  -0.00046
   X18       11.18592   0.00235   0.00000   0.00917   0.00917  11.19510
   Y18       -3.81786  -0.00021   0.00000   0.00606   0.00528  -3.81258
   Z18       -0.00046   0.00000   0.00000   0.00000   0.00000  -0.00046
   X19       12.51373   0.00102   0.00000  -0.00915  -0.00916  12.50458
   Y19        4.24159  -0.00027   0.00000  -0.00413  -0.00491   4.23669
   Z19       -0.00037  -0.00000   0.00000  -0.00000  -0.00000  -0.00037
   X20       14.13927   0.00220   0.00000   0.00521   0.00521  14.14448
   Y20       -0.13414   0.00026   0.00000  -0.00122  -0.00200  -0.13614
   Z20       -0.00062  -0.00000   0.00000   0.00000   0.00000  -0.00062
   X21       -6.98976   0.01188   0.00000   0.02793   0.02792  -6.96183
   Y21        1.09927  -0.00450   0.00000  -0.01186  -0.01264   1.08663
   Z21       -0.00008  -0.00000   0.00000   0.00000   0.00000  -0.00007
   X22       -3.63547   0.00013   0.00000   0.03585   0.03585  -3.59961
   Y22       -1.71563   0.00503   0.00000   0.00432   0.00354  -1.71209
   Z22        0.00019  -0.00002   0.00000  -0.00004  -0.00004   0.00015
   X23       -7.91587  -0.01513   0.00000   0.00381   0.00381  -7.91205
   Y23       -1.40566   0.00598   0.00000   0.00819   0.00741  -1.39825
   Z23       -0.00012  -0.00000   0.00000   0.00000   0.00000  -0.00012
   X24       -8.60015  -0.01294   0.00000   0.00833   0.00833  -8.59182
   Y24        3.15215   0.00148   0.00000  -0.00411  -0.00489   3.14725
   Z24       -0.00010  -0.00000   0.00000  -0.00000  -0.00000  -0.00011
   X25      -10.48912  -0.00233   0.00000   0.00062   0.00061 -10.48851
   Y25       -1.89151   0.00783   0.00000   0.00617   0.00539  -1.88612
   Z25       -0.00018  -0.00000   0.00000  -0.00000  -0.00001  -0.00019
   X26      -11.21314   0.01453   0.00000   0.02076   0.02076 -11.19239
   Y26        2.65655   0.00885   0.00000   0.00032  -0.00046   2.65608
   Z26       -0.00019   0.00000   0.00000  -0.00000  -0.00000  -0.00019
   X27       -7.88707  -0.00056   0.00000  -0.00175  -0.00175  -7.88882
   Y27        5.06864   0.00078   0.00000   0.00120   0.00042   5.06905
   Z27       -0.00005  -0.00000   0.00000  -0.00000  -0.00000  -0.00005
   X28      -12.12005  -0.00110   0.00000   0.00094   0.00094 -12.11912
   Y28        0.20245  -0.01526   0.00000  -0.01117  -0.01195   0.19050
   Z28       -0.00024   0.00000   0.00000   0.00000   0.00000  -0.00024
   X29      -11.18591  -0.00234   0.00000  -0.00918  -0.00918 -11.19509
   Y29       -3.81787  -0.00021   0.00000   0.00606   0.00528  -3.81259
   Z29       -0.00019  -0.00000   0.00000  -0.00000  -0.00000  -0.00019
   X30      -12.51375  -0.00101   0.00000   0.00917   0.00917 -12.50458
   Y30        4.24159  -0.00028   0.00000  -0.00414  -0.00492   4.23667
   Z30       -0.00020  -0.00000   0.00000  -0.00000  -0.00000  -0.00020
   X31      -14.13925  -0.00221   0.00000  -0.00522  -0.00522 -14.14447
   Y31       -0.13417   0.00026   0.00000  -0.00123  -0.00201  -0.13617
   Z31       -0.00029   0.00000   0.00000   0.00000   0.00000  -0.00029
   X32       -4.37469  -0.02135   0.00000   0.03002   0.03002  -4.34467
   Y32        0.89925  -0.06955   0.00000  -0.06089  -0.06167   0.83758
   Z32        0.00001   0.00001   0.00000   0.00002   0.00002   0.00003
   X33       -5.90469   0.03158   0.00000   0.04904   0.04904  -5.85565
   Y33       -3.03433   0.02354   0.00000   0.02932   0.02854  -3.00578
   Z33       -0.00010   0.00001   0.00000   0.00003   0.00002  -0.00007
   X34        4.37470   0.02134   0.00000  -0.03003  -0.03003   4.34467
   Y34        0.89922  -0.06951   0.00000  -0.06087  -0.06165   0.83757
   Z34        0.00013   0.00001   0.00000   0.00001   0.00001   0.00014
   X35        5.90472  -0.03160   0.00000  -0.04904  -0.04904   5.85568
   Y35       -3.03432   0.02354   0.00000   0.02933   0.02855  -3.00577
   Z35       -0.00007   0.00001   0.00000   0.00002   0.00002  -0.00005
   X36        6.04836   0.00049   0.00000  -0.01282  -0.01282   6.03555
   Y36       -5.72806  -0.01111   0.00000   0.00731   0.00653  -5.72153
   Z36        0.00002  -0.00000   0.00000   0.00000  -0.00000   0.00002
   X37        7.02047   0.00103   0.00000   0.00137   0.00137   7.02183
   Y37       -6.43270   0.00147   0.00000   0.01567   0.01489  -6.41782
   Z37       -1.69136   0.00125   0.00000   0.00516   0.00516  -1.68620
   X38        7.01960   0.00103   0.00000   0.00137   0.00137   7.02097
   Y38       -6.43273   0.00147   0.00000   0.01567   0.01488  -6.41784
   Z38        1.69189  -0.00125   0.00000  -0.00516  -0.00516   1.68673
   X39        4.13286   0.00056   0.00000  -0.00712  -0.00712   4.12574
   Y39       -6.50645   0.00322   0.00000   0.00927   0.00849  -6.49796
   Z39       -0.00052   0.00000   0.00000   0.00001   0.00001  -0.00051
   X40       -6.04836  -0.00048   0.00000   0.01283   0.01283  -6.03553
   Y40       -5.72807  -0.01110   0.00000   0.00731   0.00653  -5.72154
   Z40        0.00009  -0.00000   0.00000   0.00000  -0.00000   0.00009
   X41       -7.01946  -0.00103   0.00000  -0.00137  -0.00137  -7.02083
   Y41       -6.43270   0.00147   0.00000   0.01567   0.01489  -6.41781
   Z41        1.69205  -0.00125   0.00000  -0.00516  -0.00516   1.68689
   X42       -7.02057  -0.00103   0.00000  -0.00137  -0.00137  -7.02194
   Y42       -6.43276   0.00147   0.00000   0.01567   0.01489  -6.41786
   Z42       -1.69120   0.00125   0.00000   0.00516   0.00516  -1.68604
   X43       -4.13284  -0.00056   0.00000   0.00712   0.00712  -4.12572
   Y43       -6.50645   0.00322   0.00000   0.00927   0.00849  -6.49797
   Z43       -0.00057   0.00000   0.00000   0.00001   0.00001  -0.00056
   X44        0.00002  -0.00000   0.00000  -0.00001  -0.00001   0.00001
   Y44       -2.36305   0.06083   0.00000   0.09916   0.09838  -2.26467
   Z44        0.00029   0.00000   0.00000  -0.00003  -0.00003   0.00026
         Item               Value     Threshold  Converged?
 Maximum Force            0.112015     0.000450     NO 
 RMS     Force            0.019605     0.000300     NO 
 Maximum Displacement     0.184841     0.001800     NO 
 RMS     Displacement     0.026117     0.001200     NO 
 Predicted change in Energy=-3.157024D-02
 GradGradGradGradGradGradGradGradGradGradGradGradGradGradGradGradGradGrad

 Unable to Open any file for archive entry.
 1\1\GINC-X11P1N5\Force\UPBE1PBE\GenECP\C22H17Co1N4\MAYUMIAO\17-Jul-202
 4\0\\# pbe1pbe em=gd3bj genecp g09default scf=(xqc,maxcycle=64) force 
 guess=read nosymm\\Title Card\\0,1\C,0.00000782,0.83585158,0.00008131\
 C,-1.29486322,1.3595842,0.00000896\C,-1.24910405,2.75442699,-0.0000089
 3\C,-0.0000009,3.39184949,0.00001207\C,1.2491134,2.75441965,0.00003857
 \C,1.29484694,1.35959362,0.00004807\H,-2.15897679,3.33283312,-0.000039
 03\H,0.00000044,4.47654209,-0.0000099\H,2.15898076,3.33283295,0.000051
 23\C,3.6988482,0.58174394,-0.00002765\C,1.92381605,-0.90786379,0.00012
 637\C,4.18887805,-0.74384012,-0.00009075\C,4.55098731,1.66802031,-0.00
 005754\C,5.55063256,-1.00093367,-0.00019399\C,5.93374282,1.40580086,-0
 .00017126\H,4.17365816,2.68221897,0.00000738\C,6.4136509,0.10712781,-0
 .00024291\H,5.91933527,-2.02032228,-0.0002411\H,6.62198308,2.24455451,
 -0.00019597\H,7.48217706,-0.07098558,-0.00032955\C,-3.69882124,0.58170
 979,-0.00003993\C,-1.92380531,-0.90787251,0.00009907\C,-4.18889577,-0.
 74384457,-0.00006518\C,-4.55100406,1.66804521,-0.00005425\C,-5.5506030
 7,-1.00094491,-0.00009746\C,-5.93373987,1.40578455,-0.00010091\H,-4.17
 366011,2.68220639,-0.00002423\C,-6.413655,0.1071313,-0.00012513\H,-5.9
 1932908,-2.02033197,-0.00010172\H,-6.62198896,2.24455033,-0.00010801\H
 ,-7.48217055,-0.07099751,-0.00015449\N,-2.31498363,0.47586033,0.000004
 56\N,-3.12462556,-1.60569626,-0.00005041\N,2.31498955,0.47584523,0.000
 06668\N,3.12464205,-1.60569319,-0.00003679\C,3.20065596,-3.03115851,0.
 000009\H,3.71507189,-3.40404035,-0.89502991\H,3.71461179,-3.40405288,0
 .89531074\H,2.18701489,-3.44306619,-0.00027316\C,-3.20065233,-3.031165
 96,0.00004602\H,-3.7145389,-3.40404076,0.89539384\H,-3.71512538,-3.404
 06833,-0.89494706\H,-2.18700616,-3.44306625,-0.00030223\Co,0.00001067,
 -1.25047021,0.00015548\\Version=ES64L-G16RevC.01\HF=-1212.1038929\S2=0
 .\S2-1=0.\S2A=0.\RMSD=2.781e-09\RMSF=1.961e-02\Dipole=-0.0000066,-1.46
 30246,-0.0000832\Quadrupole=13.4845648,7.1566443,-20.6412091,0.0003383
 ,-0.0004045,0.000132\PG=C01 [X(C22H17Co1N4)]\\@
 The archive entry for this job was punched.


 IN SO FAR AS QUANTUM MECHANICS IS CORRECT, CHEMICAL 
 QUESTIONS ARE PROBLEMS IN APPLIED MATHEMATICS.

                    -- EYRING, WALTER, & KIMBALL, 1944
 Job cpu time:       0 days  0 hours 35 minutes 34.7 seconds.
 Elapsed time:       0 days  0 hours  0 minutes 38.9 seconds.
 File lengths (MBytes):  RWF=    184 Int=      0 D2E=      0 Chk=    162 Scr=      1
 Normal termination of Gaussian 16 at Wed Jul 17 21:11:11 2024.
