 Entering Gaussian System, Link 0=g16
 Input=JOBS/25_A.gjf
 Output=JOBS/25_A.log
 Initial command:
 /data/app/gaussian/C01-avx2//g16/l1.exe "/tmp/Gau-2079188.inp" -scrdir="/tmp/"
 Entering Link 1 = /data/app/gaussian/C01-avx2//g16/l1.exe PID=   2079189.
  
 Copyright (c) 1988-2019, Gaussian, Inc.  All Rights Reserved.
  
 This is part of the Gaussian(R) 16 program.  It is based on
 the Gaussian(R) 09 system (copyright 2009, Gaussian, Inc.),
 the Gaussian(R) 03 system (copyright 2003, Gaussian, Inc.),
 the Gaussian(R) 98 system (copyright 1998, Gaussian, Inc.),
 the Gaussian(R) 94 system (copyright 1995, Gaussian, Inc.),
 the Gaussian 92(TM) system (copyright 1992, Gaussian, Inc.),
 the Gaussian 90(TM) system (copyright 1990, Gaussian, Inc.),
 the Gaussian 88(TM) system (copyright 1988, Gaussian, Inc.),
 the Gaussian 86(TM) system (copyright 1986, Carnegie Mellon
 University), and the Gaussian 82(TM) system (copyright 1983,
 Carnegie Mellon University). Gaussian is a federally registered
 trademark of Gaussian, Inc.
  
 This software contains proprietary and confidential information,
 including trade secrets, belonging to Gaussian, Inc.
  
 This software is provided under written license and may be
 used, copied, transmitted, or stored only in accord with that
 written license.
  
 The following legend is applicable only to US Government
 contracts under FAR:
  
                    RESTRICTED RIGHTS LEGEND
  
 Use, reproduction and disclosure by the US Government is
 subject to restrictions as set forth in subparagraphs (a)
 and (c) of the Commercial Computer Software - Restricted
 Rights clause in FAR 52.227-19.
  
 Gaussian, Inc.
 340 Quinnipiac St., Bldg. 40, Wallingford CT 06492
  
  
 ---------------------------------------------------------------
 Warning -- This program may not be used in any manner that
 competes with the business of Gaussian, Inc. or will provide
 assistance to any competitor of Gaussian, Inc.  The licensee
 of this program is prohibited from giving any competitor of
 Gaussian, Inc. access to this program.  By using this program,
 the user acknowledges that Gaussian, Inc. is engaged in the
 business of creating and licensing software in the field of
 computational chemistry and represents and warrants to the
 licensee that it is not a competitor of Gaussian, Inc. and that
 it will not use this program in any manner prohibited above.
 ---------------------------------------------------------------
  

 Cite this work as:
 Gaussian 16, Revision C.01,
 M. J. Frisch, G. W. Trucks, H. B. Schlegel, G. E. Scuseria, 
 M. A. Robb, J. R. Cheeseman, G. Scalmani, V. Barone, 
 G. A. Petersson, H. Nakatsuji, X. Li, M. Caricato, A. V. Marenich, 
 J. Bloino, B. G. Janesko, R. Gomperts, B. Mennucci, H. P. Hratchian, 
 J. V. Ortiz, A. F. Izmaylov, J. L. Sonnenberg, D. Williams-Young, 
 F. Ding, F. Lipparini, F. Egidi, J. Goings, B. Peng, A. Petrone, 
 T. Henderson, D. Ranasinghe, V. G. Zakrzewski, J. Gao, N. Rega, 
 G. Zheng, W. Liang, M. Hada, M. Ehara, K. Toyota, R. Fukuda, 
 J. Hasegawa, M. Ishida, T. Nakajima, Y. Honda, O. Kitao, H. Nakai, 
 T. Vreven, K. Throssell, J. A. Montgomery, Jr., J. E. Peralta, 
 F. Ogliaro, M. J. Bearpark, J. J. Heyd, E. N. Brothers, K. N. Kudin, 
 V. N. Staroverov, T. A. Keith, R. Kobayashi, J. Normand, 
 K. Raghavachari, A. P. Rendell, J. C. Burant, S. S. Iyengar, 
 J. Tomasi, M. Cossi, J. M. Millam, M. Klene, C. Adamo, R. Cammi, 
 J. W. Ochterski, R. L. Martin, K. Morokuma, O. Farkas, 
 J. B. Foresman, and D. J. Fox, Gaussian, Inc., Wallingford CT, 2019.
 
 ******************************************
 Gaussian 16:  ES64L-G16RevC.01  3-Jul-2019
                17-Jul-2024 
 ******************************************
 %chk=a.chk
 %nprocshared=56
 Will use up to   56 processors via shared memory.
 %mem=96gb
 ----------------------------------------------------------------------
 # pbe1pbe em=gd3bj genecp g09default scf=(xqc,maxcycle=64) force guess
 =read nosymm
 ----------------------------------------------------------------------
 1/10=7,30=1,38=1,158=3,167=1/1,3;
 2/12=2,15=1,17=6,18=5,40=1/2;
 3/5=7,11=2,16=1,17=8,25=1,27=10,30=1,71=1,74=-13,75=-4,116=-2,124=41,158=3/1,2,3;
 4/5=1,60=-1/1;
 5/5=2,7=64,8=3,13=1,38=6,87=10/2,8;
 6/7=2,8=2,9=2,10=2,28=1,87=10/1;
 7/29=1,30=1,87=10/1,2,3,16;
 1/10=7,30=1,158=3,167=1/3;
 99//99;
 Using 2006 physical constants.
 ----------
 Title Card
 ----------
 Symbolic Z-matrix:
 Charge =  0 Multiplicity = 1
 6                    0.         0.81903   0.0001 
 6                    -1.28693   1.35976   0.00001 
 6                    -1.24626   2.7546   -0.00001 
 6                     0.        3.39724   0.00001 
 6                     1.24626   2.7546    0.00004 
 6                     1.28693   1.35976   0.00005 
 1                    -2.15897   3.33396  -0.00004 
 1                     0.        4.48341  -0.00001 
 1                     2.15898   3.33396   0.00005 
 6                     3.69562   0.58339  -0.00003 
 6                     1.92023  -0.90824   0.00012 
 6                     4.18754  -0.74409  -0.00009 
 6                     4.54894   1.66524  -0.00006 
 6                     5.55038  -0.99988  -0.0002 
 6                     5.931     1.40651  -0.00017 
 1                     4.17401   2.68296   0.00001 
 6                     6.41416   0.10467  -0.00024 
 1                     5.92137  -2.02024  -0.00024 
 1                     6.62063   2.24346  -0.0002 
 1                     7.4835   -0.07056  -0.00033 
 6                    -3.69562   0.58339  -0.00004 
 6                    -1.92021  -0.90824   0.00009 
 6                    -4.18753  -0.74411  -0.00007 
 6                    -4.54894   1.66522  -0.00005 
 6                    -5.55037  -0.99988  -0.0001 
 6                    -5.931     1.40651  -0.0001 
 1                    -4.17401   2.68295  -0.00002 
 6                    -6.41416   0.10466  -0.00012 
 1                    -5.92137  -2.02025  -0.0001 
 1                    -6.62063   2.24345  -0.00011 
 1                    -7.48349  -0.07057  -0.00015 
 7                    -2.31005   0.47164   0.00001 
 7                    -3.12049  -1.60455  -0.00005 
 7                     2.31005   0.47165   0.00007 
 7                     3.1205   -1.60455  -0.00003 
 6                     3.19953  -3.03006   0.00001 
 1                     3.71555  -3.4023   -0.89449 
 1                     3.71509  -3.40231   0.89477 
 1                     2.18592  -3.44178  -0.00027 
 6                    -3.19953  -3.03007   0.00004 
 1                    -3.71502  -3.4023    0.89485 
 1                    -3.71561  -3.40233  -0.89441 
 1                    -2.18591  -3.44178  -0.0003 
 27                    0.00001  -1.24986   0.00013 
 

 GradGradGradGradGradGradGradGradGradGradGradGradGradGradGradGradGradGrad
 Berny optimization.
 Initialization pass.
 Trust Radius=3.00D-01 FncErr=1.00D-07 GrdErr=1.00D-07 EigMax=2.50D+02 EigMin=1.00D-04
 Number of steps in this run=      2 maximum allowed number of steps=      2.
 GradGradGradGradGradGradGradGradGradGradGradGradGradGradGradGradGradGrad

                          Input orientation:                          
 ---------------------------------------------------------------------
 Center     Atomic      Atomic             Coordinates (Angstroms)
 Number     Number       Type             X           Y           Z
 ---------------------------------------------------------------------
      1          6           0       -0.000000    0.819028    0.000102
      2          6           0       -1.286934    1.359757    0.000010
      3          6           0       -1.246258    2.754602   -0.000011
      4          6           0        0.000001    3.397236    0.000012
      5          6           0        1.246265    2.754603    0.000037
      6          6           0        1.286934    1.359755    0.000049
      7          1           0       -2.158971    3.333959   -0.000039
      8          1           0        0.000001    4.483412   -0.000010
      9          1           0        2.158975    3.333958    0.000051
     10          6           0        3.695620    0.583385   -0.000029
     11          6           0        1.920229   -0.908238    0.000125
     12          6           0        4.187541   -0.744095   -0.000092
     13          6           0        4.548944    1.665236   -0.000058
     14          6           0        5.550379   -0.999877   -0.000196
     15          6           0        5.931001    1.406514   -0.000171
     16          1           0        4.174011    2.682956    0.000008
     17          6           0        6.414160    0.104673   -0.000243
     18          1           0        5.921373   -2.020239   -0.000241
     19          1           0        6.620630    2.243461   -0.000196
     20          1           0        7.483497   -0.070558   -0.000329
     21          6           0       -3.695619    0.583388   -0.000041
     22          6           0       -1.920213   -0.908243    0.000094
     23          6           0       -4.187534   -0.744106   -0.000066
     24          6           0       -4.548945    1.665223   -0.000054
     25          6           0       -5.550371   -0.999882   -0.000098
     26          6           0       -5.931000    1.406511   -0.000100
     27          1           0       -4.174011    2.682953   -0.000024
     28          6           0       -6.414158    0.104661   -0.000125
     29          1           0       -5.921365   -2.020247   -0.000102
     30          1           0       -6.620634    2.243453   -0.000108
     31          1           0       -7.483492   -0.070570   -0.000154
     32          7           0       -2.310052    0.471644    0.000009
     33          7           0       -3.120493   -1.604553   -0.000046
     34          7           0        2.310055    0.471646    0.000072
     35          7           0        3.120498   -1.604547   -0.000034
     36          6           0        3.199534   -3.030062    0.000008
     37          1           0        3.715552   -3.402299   -0.894489
     38          1           0        3.715093   -3.402310    0.894769
     39          1           0        2.185918   -3.441778   -0.000272
     40          6           0       -3.199527   -3.030067    0.000045
     41          1           0       -3.715020   -3.402299    0.894852
     42          1           0       -3.715607   -3.402328   -0.894407
     43          1           0       -2.185910   -3.441779   -0.000301
     44         27           0        0.000008   -1.249861    0.000134
 ---------------------------------------------------------------------
                    Distance matrix (angstroms):
                    1          2          3          4          5
     1  C    0.000000
     2  C    1.395918   0.000000
     3  C    2.302087   1.395437   0.000000
     4  C    2.578208   2.409880   1.402192   0.000000
     5  C    2.302092   2.891831   2.492523   1.402195   0.000000
     6  C    1.395918   2.573868   2.891826   2.409881   1.395440
     7  H    3.314519   2.158222   1.081064   2.159900   3.454169
     8  H    3.664384   3.378375   2.131184   1.086176   2.131186
     9  H    3.314521   3.971367   3.454167   2.159901   1.081061
    10  C    3.703126   5.042678   5.397809   4.644928   3.273153
    11  C    2.582776   3.928065   4.841801   4.714274   3.724330
    12  C    4.469771   5.864816   6.462743   5.889491   4.570776
    13  C    4.626983   5.843868   5.896702   4.867516   3.477703
    14  C    5.840815   7.233030   7.764688   7.081052   5.711525
    15  C    5.960027   7.218086   7.302766   6.256176   4.874844
    16  H    4.571280   5.618966   5.420743   4.234685   2.928623
    17  C    6.453817   7.802697   8.105808   7.209883   5.807691
    18  H    6.566894   7.961411   8.612435   8.025688   6.682496
    19  H    6.772131   7.956789   7.883476   6.720411   5.398617
    20  H    7.536186   8.886296   9.175519   8.247927   6.847233
    21  C    3.703123   2.530714   3.273154   4.644927   5.397813
    22  C    2.582766   2.354754   3.724331   4.714273   4.841799
    23  C    4.469768   3.583255   4.570783   5.889496   6.462749
    24  C    4.626980   3.276282   3.477712   4.867523   5.896711
    25  C    5.840809   4.872864   5.711527   7.081051   7.764691
    26  C    5.960024   4.644301   4.874849   6.256177   7.302772
    27  H    4.571278   3.175856   2.928629   4.234687   5.420749
    28  C    6.453816   5.278608   5.807700   7.209888   8.105817
    29  H    6.566890   5.736060   6.682500   8.025691   8.612439
    30  H    6.772132   5.406410   5.398628   6.720419   7.883487
    31  H    7.536181   6.359494   6.847238   8.247930   9.175524
    32  N    2.336025   1.354813   2.518641   3.727659   4.226025
    33  N    3.951103   3.485552   4.744995   5.895369   6.170154
    34  N    2.336029   3.705006   4.226021   3.727657   2.518639
    35  N    3.951104   5.311549   6.170149   5.895365   4.744991
    36  C    5.005249   6.276855   7.295711   7.179636   6.105539
    37  H    5.694315   6.964351   7.957831   7.799944   6.693654
    38  H    5.694036   6.964061   7.957587   7.799765   6.693522
    39  H    4.788811   5.925829   7.083429   7.179858   6.267224
    40  C    5.005247   4.788378   6.105542   7.179638   7.295715
    41  H    5.693992   5.419735   6.693503   7.799731   7.957542
    42  H    5.694359   5.419953   6.693684   7.799987   7.957889
    43  H    4.788808   4.884968   6.267223   7.179857   7.083430
    44  Co   2.068889   2.909696   4.193912   4.647098   4.193911
                    6          7          8          9         10
     6  C    0.000000
     7  H    3.971366   0.000000
     8  H    3.378376   2.445895   0.000000
     9  H    2.158224   4.317947   2.445898   0.000000
    10  C    2.530715   6.468531   5.372877   3.150703   0.000000
    11  C    2.354752   5.885245   5.723388   4.248909   2.318826
    12  C    3.583253   7.543788   6.697934   4.554733   1.415694
    13  C    3.276283   6.912364   5.351168   2.914890   1.377884
    14  C    4.872866   8.843993   7.802125   5.503066   2.438616
    15  C    4.644302   8.316411   6.681622   4.235944   2.382114
    16  H    3.175858   6.366355   4.545768   2.117587   2.153382
    17  C    5.278606   9.161161   7.766260   5.341805   2.760367
    18  H    5.736060   9.693265   8.795460   6.543933   3.425322
    19  H    5.406408   8.847066   6.989285   4.592989   3.363262
    20  H    6.359496  10.225846   8.760214   6.319910   3.843911
    21  C    5.042676   3.150702   5.372875   6.468532   7.391239
    22  C    3.928054   4.248916   5.723387   5.885239   5.810554
    23  C    5.864813   4.554742   6.697939   7.543791   7.994145
    24  C    5.843868   2.914902   5.351177   6.912371   8.315240
    25  C    7.233024   5.503070   7.802125   8.843992   9.380570
    26  C    7.218085   4.235948   6.681623   8.316414   9.661747
    27  H    5.618965   2.117591   4.545770   6.366359   8.144893
    28  C    7.802697   5.341814   7.766266   9.161167  10.121107
    29  H    7.961407   6.543939   8.795462   9.693267   9.963198
    30  H    7.956793   4.592999   6.989293   8.847075  10.448967
    31  H    8.886293   6.319916   8.760217  10.225848  11.198223
    32  N    3.705004   2.866300   4.629323   5.307075   6.006712
    33  N    5.311547   5.031245   6.841110   7.229223   7.158664
    34  N    1.354812   5.307074   4.629322   2.866296   1.390064
    35  N    3.485548   7.229221   6.841107   5.031238   2.262258
    36  C    4.788375   8.319516   8.166352   6.448528   3.647342
    37  H    5.419921   8.982608   8.762982   6.971391   4.084867
    38  H    5.419755   8.982351   8.762828   6.971322   4.084949
    39  H    4.884967   8.049142   8.221124   6.775790   4.298970
    40  C    6.276852   6.448533   8.166354   8.319516   7.784606
    41  H    6.964006   6.971319   8.762796   8.982296   8.461920
    42  H    6.964403   6.971411   8.763023   8.982667   8.462394
    43  H    5.925823   6.775792   8.221123   8.049139   7.127015
    44  Co   2.909687   5.066814   5.733273   5.066808   4.125330
                   11         12         13         14         15
    11  C    0.000000
    12  C    2.273245   0.000000
    13  C    3.678710   2.436286   0.000000
    14  C    3.631306   1.386633   2.847050   0.000000
    15  C    4.630806   2.768532   1.406064   2.436306   0.000000
    16  H    4.239835   3.427077   1.084587   3.931621   2.171708
    17  C    4.606669   2.382906   2.431951   1.402194   1.388608
    18  H    4.152794   2.152839   3.932719   1.085714   3.426766
    19  H    5.659238   3.852974   2.150866   3.415359   1.084467
    20  H    5.625980   3.364072   3.409484   2.144896   2.142892
    21  C    5.810568   7.994149   8.315240   9.380576   9.661746
    22  C    3.840442   6.109959   6.962240   7.471154   8.185332
    23  C    6.109968   8.375074   9.062614   9.741271  10.344559
    24  C    6.962249   9.062615   9.097889  10.445051  10.483138
    25  C    7.471163   9.741271  10.445049  11.100750  11.730842
    26  C    8.185344  10.344562  10.483137  11.730846  11.862001
    27  H    7.073642   9.036603   8.782124  10.398413  10.185311
    28  C    8.395712  10.635620  11.073618  12.015413  12.413613
    29  H    7.920049  10.189139  11.100008  11.517034  12.337799
    30  H    9.103818  11.213477  11.184535  12.595743  12.579507
    31  H    9.440956  11.690450  12.156995  13.066958  13.495569
    32  N    4.449647   6.610350   6.962076   7.996984   8.293910
    33  N    5.088589   7.358515   8.337373   8.691930   9.539185
    34  N    1.433891   2.236734   2.537180   3.558803   3.739683
    35  N    1.387621   1.370751   3.568184   2.503986   4.118909
    36  C    2.477652   2.490342   4.885359   3.106143   5.210001
    37  H    3.200603   2.844076   5.212913   3.152456   5.369609
    38  H    3.200362   2.844309   5.213065   3.152923   5.369912
    39  H    2.547434   3.359165   5.627210   4.157220   6.126302
    40  C    5.542027   7.732686   9.060059   8.982345  10.151344
    41  H    6.227111   8.385550   9.735188   9.613551  10.815335
    42  H    6.227626   8.386044   9.735649   9.614046  10.815806
    43  H    4.824854   6.920865   8.452211   8.112525   9.454638
    44  Co   1.950374   4.217965   5.402834   5.555998   6.498693
                   16         17         18         19         20
    16  H    0.000000
    17  C    3.415525   0.000000
    18  H    5.017301   2.181305   0.000000
    19  H    2.485779   2.148730   4.320659   0.000000
    20  H    4.305175   1.083599   2.498296   2.469661   0.000000
    21  C    8.144892  10.121107   9.963202  10.448963  11.198226
    22  C    7.073632   8.395700   7.920038   9.103803   9.440946
    23  C    9.036602  10.635617  10.189137  11.213472  11.690450
    24  C    8.782126  11.073617  11.100008  11.184532  12.156997
    25  C   10.398409  12.015409  11.517033  12.595735  13.066957
    26  C   10.185311  12.413612  12.337802  12.579503  13.495571
    27  H    8.348022  10.897564  11.137180  10.803584  11.978285
    28  C   10.897566  12.828319  12.517209  13.209094  13.898760
    29  H   11.137179  12.517207  11.842738  13.246919  13.545908
    30  H   10.803589  13.209097  13.246924  13.241264  14.292695
    31  H   11.978283  13.898757  13.545907  14.292690  14.966988
    32  N    6.850765   8.731927   8.600339   9.104747   9.808546
    33  N    8.461236   9.686643   9.051416  10.473618  10.714370
    34  N    2.892097   4.120479   4.387608   4.660513   5.201777
    35  N    4.415039   3.710747   2.831554   5.201739   4.624811
    36  C    5.795531   4.490032   2.903128   6.286011   5.206822
    37  H    6.167709   4.514534   2.752347   6.412007   5.108564
    38  H    6.167793   4.514969   2.752969   6.412319   5.109074
    39  H    6.439323   5.518637   3.996799   7.210313   6.279289
    40  C    9.327791  10.111853   9.176631  11.146550  11.085381
    41  H   10.003394  10.756410   9.776060  11.811070  11.717876
    42  H   10.003835  10.756894   9.776558  11.811534  11.718361
    43  H    8.829551   9.302609   8.230967  10.482228  10.240242
    44  Co   5.734924   6.555617   5.971268   7.485716   7.575841
                   21         22         23         24         25
    21  C    0.000000
    22  C    2.318842   0.000000
    23  C    1.415705   2.273254   0.000000
    24  C    1.377872   3.678717   2.436285   0.000000
    25  C    2.438617   3.631315   1.386632   2.847041   0.000000
    26  C    2.382112   4.630820   2.768543   1.406061   2.436311
    27  H    2.153376   4.239846   3.427085   1.084596   3.931621
    28  C    2.760369   4.606682   2.382911   2.431949   1.402193
    29  H    3.425327   4.152803   2.152838   3.932713   1.085717
    30  H    3.363261   5.659253   3.852983   2.150871   3.415360
    31  H    3.843910   5.625990   3.364073   3.409478   2.144895
    32  N    1.390066   1.433897   2.236735   2.537178   3.558800
    33  N    2.262268   1.387631   1.370746   3.568180   2.503984
    34  N    6.006713   4.449636   6.610349   6.962076   7.996981
    35  N    7.158667   5.088576   7.358511   8.337371   8.691927
    36  C    7.784610   5.542014   7.732681   9.060057   8.982342
    37  H    8.462340   6.227555   8.385986   9.735590   9.613994
    38  H    8.461981   6.227157   8.385600   9.735241   9.613598
    39  H    7.127022   4.824843   6.920862   8.452209   8.112523
    40  C    3.647350   2.477656   2.490336   4.885353   3.106142
    41  H    4.084962   3.200350   2.844317   5.213067   3.152944
    42  H    4.084877   3.200629   2.844065   5.212906   3.152442
    43  H    4.298976   2.547430   3.359158   5.627203   4.157218
    44  Co   4.125344   1.950372   4.217973   5.402841   5.556006
                   26         27         28         29         30
    26  C    0.000000
    27  H    2.171707   0.000000
    28  C    1.388617   3.415530   0.000000
    29  H    3.426772   5.017304   2.181303   0.000000
    30  H    1.084466   2.485784   2.148735   4.320661   0.000000
    31  H    2.142895   4.305177   1.083596   2.498295   2.469661
    32  N    3.739684   2.892098   4.120481   4.387608   4.660517
    33  N    4.118915   4.415043   3.710747   2.831553   5.201743
    34  N    8.293911   6.850766   8.731929   8.600338   9.104752
    35  N    9.539187   8.461236   9.686644   9.051414  10.473622
    36  C   10.151346   9.327792  10.111853   9.176630  11.146553
    37  H   10.815755  10.003778  10.756844   9.776512  11.811485
    38  H   10.815390  10.003451  10.756459   9.776104  11.811126
    39  H    9.454643   8.829554   9.302610   8.230966  10.482233
    40  C    5.210007   5.795534   4.490031   2.903126   6.286015
    41  H    5.369931   6.167801   4.514986   2.752993   6.412336
    42  H    5.369607   6.167714   4.514520   2.752326   6.412003
    43  H    6.126305   6.439324   5.518634   3.996796   7.210315
    44  Co   6.498705   5.734933   6.555628   5.971277   7.485729
                   31         32         33         34         35
    31  H    0.000000
    32  N    5.201776   0.000000
    33  N    4.624809   2.228768   0.000000
    34  N    9.808545   4.620107   5.813901   0.000000
    35  N   10.714368   5.813901   6.240991   2.228765   0.000000
    36  C   11.085379   6.528206   6.478797   3.612911   1.427705
    37  H   11.718312   7.219104   7.124846   4.217002   2.094291
    38  H   11.717921   7.218759   7.124455   4.216889   2.094318
    39  H   10.240241   5.960589   5.615460   3.915393   2.061276
    40  C    5.206820   3.612913   1.427703   6.528206   6.478798
    41  H    5.109093   4.216884   2.094325   7.218699   7.124398
    42  H    5.108547   4.217015   2.094286   7.219166   7.124903
    43  H    6.279285   3.915391   2.061273   5.960587   5.615460
    44  Co   7.575849   2.880964   3.140594   2.880956   3.140583
                   36         37         38         39         40
    36  C    0.000000
    37  H    1.097707   0.000000
    38  H    1.097710   1.789258   0.000000
    39  H    1.094042   1.772276   1.772295   0.000000
    40  C    6.399061   6.982626   6.982196   5.401159   0.000000
    41  H    6.982146   7.642981   7.430113   5.968574   1.097712
    42  H    6.982674   7.431159   7.643065   5.969006   1.097707
    43  H    5.401159   5.968952   5.968630   4.371828   1.094041
    44  Co   3.661432   4.386184   4.385803   3.095594   3.661441
                   41         42         43         44
    41  H    0.000000
    42  H    1.789259   0.000000
    43  H    1.772297   1.772273   0.000000
    44  Co   4.385766   4.386241   3.095600   0.000000
 Symmetry turned off by external request.
 Stoichiometry    C22H17CoN4
 Framework group  C1[X(C22H17CoN4)]
 Deg. of freedom   126
 Full point group                 C1      NOp   1
 Rotational constants (GHZ):           0.4625679           0.1003821           0.0825695
 General basis read from cards:  (5D, 7F)
 ======================================================================================================
                                       Pseudopotential Parameters
 ======================================================================================================
  Center     Atomic      Valence      Angular      Power
  Number     Number     Electrons     Momentum     of R      Exponent        Coefficient   SO-Coeffient
 ======================================================================================================
    1          6
                                   No pseudopotential on this center.
    2          6
                                   No pseudopotential on this center.
    3          6
                                   No pseudopotential on this center.
    4          6
                                   No pseudopotential on this center.
    5          6
                                   No pseudopotential on this center.
    6          6
                                   No pseudopotential on this center.
    7          1
                                   No pseudopotential on this center.
    8          1
                                   No pseudopotential on this center.
    9          1
                                   No pseudopotential on this center.
   10          6
                                   No pseudopotential on this center.
   11          6
                                   No pseudopotential on this center.
   12          6
                                   No pseudopotential on this center.
   13          6
                                   No pseudopotential on this center.
   14          6
                                   No pseudopotential on this center.
   15          6
                                   No pseudopotential on this center.
   16          1
                                   No pseudopotential on this center.
   17          6
                                   No pseudopotential on this center.
   18          1
                                   No pseudopotential on this center.
   19          1
                                   No pseudopotential on this center.
   20          1
                                   No pseudopotential on this center.
   21          6
                                   No pseudopotential on this center.
   22          6
                                   No pseudopotential on this center.
   23          6
                                   No pseudopotential on this center.
   24          6
                                   No pseudopotential on this center.
   25          6
                                   No pseudopotential on this center.
   26          6
                                   No pseudopotential on this center.
   27          1
                                   No pseudopotential on this center.
   28          6
                                   No pseudopotential on this center.
   29          1
                                   No pseudopotential on this center.
   30          1
                                   No pseudopotential on this center.
   31          1
                                   No pseudopotential on this center.
   32          7
                                   No pseudopotential on this center.
   33          7
                                   No pseudopotential on this center.
   34          7
                                   No pseudopotential on this center.
   35          7
                                   No pseudopotential on this center.
   36          6
                                   No pseudopotential on this center.
   37          1
                                   No pseudopotential on this center.
   38          1
                                   No pseudopotential on this center.
   39          1
                                   No pseudopotential on this center.
   40          6
                                   No pseudopotential on this center.
   41          1
                                   No pseudopotential on this center.
   42          1
                                   No pseudopotential on this center.
   43          1
                                   No pseudopotential on this center.
   44         27           17
                                      F and up 
                                                     2        1.0000000        0.00000000    0.00000000
                                      S - F
                                                     2       23.6600000      283.96056600    0.00000000
                                                     2       10.6100000       47.15684600    0.00000000
                                      P - F
                                                     2       25.0400000      182.21223600    0.00000000
                                                     2       10.4400000       35.23335200    0.00000000
                                      D - F
                                                     2       29.5400000      -26.47533300    0.00000000
                                                     2       10.1800000       -1.82578700    0.00000000
 ======================================================================================================
   441 basis functions,   871 primitive gaussians,   473 cartesian basis functions
    97 alpha electrons       97 beta electrons
       nuclear repulsion energy      2484.7094472029 Hartrees.
 NAtoms=   44 NActive=   44 NUniq=   44 SFac= 1.00D+00 NAtFMM=   60 NAOKFM=F Big=F
 Integral buffers will be    131072 words long.
 Raffenetti 2 integral format.
 Two-electron integral symmetry is turned off.
 Nuclear repulsion after empirical dispersion term =     2484.6503486390 Hartrees.
 One-electron integrals computed using PRISM.
   1 Symmetry operations used in ECPInt.
 ECPInt:  NShTT=   11781 NPrTT=   71406 LenC2=    9520 LenP2D=   32025.
 LDataN:  DoStor=T MaxTD1= 6 Len=  172
 NBasis=   441 RedAO= T EigKep=  3.16D-04  NBF=   441
 NBsUse=   441 1.00D-06 EigRej= -1.00D+00 NBFU=   441
 Initial guess from the checkpoint file:  "a.chk"
 B after Tr=    -0.000001   -0.000817   -0.000004
         Rot=    1.000000   -0.000001   -0.000000   -0.000000 Ang=  -0.00 deg.
 Initial guess <Sx>= 0.0000 <Sy>= 0.0000 <Sz>= 0.0000 <S**2>= 0.0000 S= 0.0000
 Requested convergence on RMS density matrix=1.00D-08 within  64 cycles.
 Requested convergence on MAX density matrix=1.00D-06.
 Requested convergence on             energy=1.00D-06.
 No special actions if energy rises.
 EnCoef did     2 forward-backward iterations
 SCF Done:  E(UPBE1PBE) =  -1212.11116243     A.U. after   19 cycles
            NFock= 19  Conv=0.24D-08     -V/T= 2.0552
 <Sx>= 0.0000 <Sy>= 0.0000 <Sz>= 0.0000 <S**2>= 0.0000 S= 0.0000
 <L.S>=  0.00000000000    
 Annihilation of the first spin contaminant:
 S**2 before annihilation     0.0000,   after    -0.0000
 QCSCF skips out because SCF is already converged.

 **********************************************************************

            Population analysis using the SCF Density.

 **********************************************************************

 Alpha  occ. eigenvalues --  -14.45802 -14.45802 -14.45246 -14.45246 -10.28340
 Alpha  occ. eigenvalues --  -10.28339 -10.27648 -10.27648 -10.27446 -10.27445
 Alpha  occ. eigenvalues --  -10.27318 -10.27318 -10.25275 -10.25274 -10.24137
 Alpha  occ. eigenvalues --  -10.24137 -10.23927 -10.23927 -10.23480 -10.23480
 Alpha  occ. eigenvalues --  -10.23427 -10.23427 -10.21464 -10.21460 -10.21101
 Alpha  occ. eigenvalues --  -10.19153  -3.83060  -2.34778  -2.34770  -2.30983
 Alpha  occ. eigenvalues --   -1.05950  -1.05886  -0.97141  -0.96814  -0.88257
 Alpha  occ. eigenvalues --   -0.87998  -0.85112  -0.80371  -0.78820  -0.78009
 Alpha  occ. eigenvalues --   -0.77889  -0.75598  -0.75048  -0.73063  -0.71815
 Alpha  occ. eigenvalues --   -0.66599  -0.65227  -0.64562  -0.64169  -0.62656
 Alpha  occ. eigenvalues --   -0.61470  -0.58946  -0.57254  -0.56687  -0.54161
 Alpha  occ. eigenvalues --   -0.53270  -0.52071  -0.49734  -0.49676  -0.49061
 Alpha  occ. eigenvalues --   -0.48441  -0.47888  -0.47476  -0.46673  -0.46211
 Alpha  occ. eigenvalues --   -0.45789  -0.45346  -0.44989  -0.44647  -0.44111
 Alpha  occ. eigenvalues --   -0.42478  -0.41920  -0.41123  -0.38604  -0.38425
 Alpha  occ. eigenvalues --   -0.38342  -0.37576  -0.36903  -0.36804  -0.36630
 Alpha  occ. eigenvalues --   -0.35070  -0.34680  -0.34474  -0.33922  -0.31688
 Alpha  occ. eigenvalues --   -0.29005  -0.26713  -0.25932  -0.24749  -0.24443
 Alpha  occ. eigenvalues --   -0.21444  -0.21348  -0.20460  -0.20108  -0.16415
 Alpha  occ. eigenvalues --   -0.15265  -0.14808
 Alpha virt. eigenvalues --   -0.04492  -0.02506  -0.00654  -0.00096   0.00902
 Alpha virt. eigenvalues --    0.01314   0.01986   0.03265   0.05366   0.05914
 Alpha virt. eigenvalues --    0.06152   0.07327   0.08930   0.09302   0.10103
 Alpha virt. eigenvalues --    0.10447   0.12622   0.13115   0.14223   0.14234
 Alpha virt. eigenvalues --    0.15317   0.15584   0.15892   0.16023   0.16514
 Alpha virt. eigenvalues --    0.16826   0.17089   0.17616   0.17880   0.18302
 Alpha virt. eigenvalues --    0.19222   0.19250   0.19751   0.20374   0.22148
 Alpha virt. eigenvalues --    0.22319   0.22525   0.22738   0.22927   0.23895
 Alpha virt. eigenvalues --    0.25913   0.25975   0.26579   0.27652   0.27825
 Alpha virt. eigenvalues --    0.28483   0.29336   0.29544   0.30684   0.31052
 Alpha virt. eigenvalues --    0.31691   0.33273   0.33734   0.34502   0.34643
 Alpha virt. eigenvalues --    0.36305   0.37738   0.38158   0.39590   0.39616
 Alpha virt. eigenvalues --    0.41540   0.43196   0.44676   0.45115   0.46249
 Alpha virt. eigenvalues --    0.47405   0.47850   0.50246   0.51299   0.51836
 Alpha virt. eigenvalues --    0.52525   0.53531   0.53744   0.55986   0.56046
 Alpha virt. eigenvalues --    0.56852   0.56936   0.57015   0.58125   0.58410
 Alpha virt. eigenvalues --    0.58611   0.59072   0.59296   0.60139   0.61475
 Alpha virt. eigenvalues --    0.61520   0.61956   0.63066   0.63163   0.63241
 Alpha virt. eigenvalues --    0.63365   0.63380   0.63409   0.63963   0.64752
 Alpha virt. eigenvalues --    0.65261   0.66055   0.66453   0.66886   0.67062
 Alpha virt. eigenvalues --    0.67632   0.68289   0.68429   0.69677   0.70895
 Alpha virt. eigenvalues --    0.72261   0.72979   0.73964   0.75781   0.76215
 Alpha virt. eigenvalues --    0.76550   0.77130   0.78269   0.79691   0.80093
 Alpha virt. eigenvalues --    0.81028   0.81934   0.82699   0.83324   0.83833
 Alpha virt. eigenvalues --    0.84235   0.84417   0.85049   0.86788   0.86788
 Alpha virt. eigenvalues --    0.86844   0.87343   0.87642   0.89852   0.90168
 Alpha virt. eigenvalues --    0.90513   0.91546   0.91690   0.92131   0.92905
 Alpha virt. eigenvalues --    0.93523   0.93682   0.95545   0.95613   0.95947
 Alpha virt. eigenvalues --    0.95951   0.97232   0.97848   0.98025   0.98360
 Alpha virt. eigenvalues --    0.98368   1.00058   1.00266   1.01684   1.02094
 Alpha virt. eigenvalues --    1.02889   1.03233   1.03982   1.06454   1.07357
 Alpha virt. eigenvalues --    1.09270   1.09825   1.11119   1.11205   1.13833
 Alpha virt. eigenvalues --    1.15014   1.15993   1.16037   1.16840   1.18483
 Alpha virt. eigenvalues --    1.18530   1.19228   1.20150   1.23661   1.24099
 Alpha virt. eigenvalues --    1.24525   1.25453   1.27102   1.27305   1.27576
 Alpha virt. eigenvalues --    1.29178   1.29222   1.30143   1.32785   1.33335
 Alpha virt. eigenvalues --    1.33789   1.36119   1.36281   1.37154   1.38931
 Alpha virt. eigenvalues --    1.40410   1.41797   1.42709   1.42724   1.43381
 Alpha virt. eigenvalues --    1.44966   1.45361   1.45386   1.46369   1.47849
 Alpha virt. eigenvalues --    1.47937   1.49231   1.49879   1.49903   1.51242
 Alpha virt. eigenvalues --    1.51266   1.51478   1.53270   1.54403   1.57235
 Alpha virt. eigenvalues --    1.57358   1.59379   1.62098   1.65851   1.65901
 Alpha virt. eigenvalues --    1.66098   1.70441   1.72491   1.72768   1.77038
 Alpha virt. eigenvalues --    1.77548   1.78618   1.79782   1.79883   1.82144
 Alpha virt. eigenvalues --    1.82850   1.85853   1.86833   1.86881   1.87454
 Alpha virt. eigenvalues --    1.88106   1.89065   1.89921   1.91413   1.91781
 Alpha virt. eigenvalues --    1.93385   1.95017   1.95164   1.96564   1.97054
 Alpha virt. eigenvalues --    1.98032   1.98421   1.98614   1.98915   1.99077
 Alpha virt. eigenvalues --    1.99717   2.00115   2.01385   2.02479   2.03915
 Alpha virt. eigenvalues --    2.06578   2.06896   2.07489   2.09641   2.10507
 Alpha virt. eigenvalues --    2.12541   2.13289   2.14221   2.15227   2.15336
 Alpha virt. eigenvalues --    2.16329   2.16573   2.16761   2.19152   2.19870
 Alpha virt. eigenvalues --    2.20515   2.21526   2.21830   2.22287   2.23498
 Alpha virt. eigenvalues --    2.24864   2.25328   2.25859   2.27214   2.27723
 Alpha virt. eigenvalues --    2.27950   2.28325   2.28373   2.28526   2.29013
 Alpha virt. eigenvalues --    2.32970   2.34676   2.39300   2.39727   2.40485
 Alpha virt. eigenvalues --    2.40649   2.44332   2.44350   2.46050   2.46781
 Alpha virt. eigenvalues --    2.51706   2.51719   2.52123   2.57333   2.58706
 Alpha virt. eigenvalues --    2.58960   2.59713   2.60065   2.61056   2.62125
 Alpha virt. eigenvalues --    2.64149   2.64985   2.66491   2.68069   2.69234
 Alpha virt. eigenvalues --    2.69989   2.70011   2.72420   2.73550   2.75213
 Alpha virt. eigenvalues --    2.75346   2.75494   2.77419   2.78799   2.79274
 Alpha virt. eigenvalues --    2.80105   2.83555   2.85434   2.88417   2.88628
 Alpha virt. eigenvalues --    2.93777   2.94205   2.97505   2.98951   3.00439
 Alpha virt. eigenvalues --    3.01188   3.06215   3.06882   3.15349   3.19176
 Alpha virt. eigenvalues --    3.19706   3.29888   3.39863   3.47130   3.47203
 Alpha virt. eigenvalues --    3.52775   3.52782   3.61209   5.66793   5.67151
 Alpha virt. eigenvalues --    5.67522   5.68365   5.68859   5.69800   5.71887
 Alpha virt. eigenvalues --   45.82200  45.96291  46.02171  63.11714
  Beta  occ. eigenvalues --  -14.45802 -14.45802 -14.45246 -14.45246 -10.28340
  Beta  occ. eigenvalues --  -10.28339 -10.27648 -10.27648 -10.27446 -10.27445
  Beta  occ. eigenvalues --  -10.27318 -10.27318 -10.25275 -10.25274 -10.24137
  Beta  occ. eigenvalues --  -10.24137 -10.23927 -10.23927 -10.23480 -10.23480
  Beta  occ. eigenvalues --  -10.23427 -10.23427 -10.21464 -10.21460 -10.21101
  Beta  occ. eigenvalues --  -10.19153  -3.83060  -2.34778  -2.34770  -2.30983
  Beta  occ. eigenvalues --   -1.05950  -1.05886  -0.97141  -0.96814  -0.88257
  Beta  occ. eigenvalues --   -0.87998  -0.85112  -0.80371  -0.78820  -0.78009
  Beta  occ. eigenvalues --   -0.77889  -0.75598  -0.75048  -0.73063  -0.71815
  Beta  occ. eigenvalues --   -0.66599  -0.65227  -0.64562  -0.64169  -0.62656
  Beta  occ. eigenvalues --   -0.61470  -0.58946  -0.57254  -0.56687  -0.54161
  Beta  occ. eigenvalues --   -0.53270  -0.52071  -0.49734  -0.49676  -0.49061
  Beta  occ. eigenvalues --   -0.48441  -0.47888  -0.47476  -0.46673  -0.46211
  Beta  occ. eigenvalues --   -0.45789  -0.45346  -0.44989  -0.44647  -0.44111
  Beta  occ. eigenvalues --   -0.42478  -0.41920  -0.41123  -0.38604  -0.38425
  Beta  occ. eigenvalues --   -0.38342  -0.37576  -0.36903  -0.36804  -0.36630
  Beta  occ. eigenvalues --   -0.35070  -0.34680  -0.34474  -0.33922  -0.31688
  Beta  occ. eigenvalues --   -0.29005  -0.26713  -0.25932  -0.24749  -0.24443
  Beta  occ. eigenvalues --   -0.21444  -0.21348  -0.20460  -0.20108  -0.16415
  Beta  occ. eigenvalues --   -0.15265  -0.14808
  Beta virt. eigenvalues --   -0.04492  -0.02506  -0.00654  -0.00096   0.00902
  Beta virt. eigenvalues --    0.01314   0.01986   0.03265   0.05366   0.05914
  Beta virt. eigenvalues --    0.06152   0.07327   0.08930   0.09302   0.10103
  Beta virt. eigenvalues --    0.10447   0.12622   0.13115   0.14223   0.14234
  Beta virt. eigenvalues --    0.15317   0.15584   0.15892   0.16023   0.16514
  Beta virt. eigenvalues --    0.16826   0.17089   0.17616   0.17880   0.18302
  Beta virt. eigenvalues --    0.19222   0.19250   0.19751   0.20374   0.22148
  Beta virt. eigenvalues --    0.22319   0.22525   0.22738   0.22927   0.23895
  Beta virt. eigenvalues --    0.25913   0.25975   0.26579   0.27652   0.27825
  Beta virt. eigenvalues --    0.28483   0.29336   0.29544   0.30684   0.31052
  Beta virt. eigenvalues --    0.31691   0.33273   0.33734   0.34502   0.34643
  Beta virt. eigenvalues --    0.36305   0.37738   0.38158   0.39590   0.39616
  Beta virt. eigenvalues --    0.41540   0.43196   0.44676   0.45115   0.46249
  Beta virt. eigenvalues --    0.47405   0.47850   0.50246   0.51299   0.51836
  Beta virt. eigenvalues --    0.52525   0.53531   0.53744   0.55986   0.56046
  Beta virt. eigenvalues --    0.56852   0.56936   0.57015   0.58125   0.58410
  Beta virt. eigenvalues --    0.58611   0.59072   0.59296   0.60139   0.61475
  Beta virt. eigenvalues --    0.61520   0.61956   0.63066   0.63163   0.63241
  Beta virt. eigenvalues --    0.63365   0.63380   0.63409   0.63963   0.64752
  Beta virt. eigenvalues --    0.65261   0.66055   0.66453   0.66886   0.67062
  Beta virt. eigenvalues --    0.67632   0.68289   0.68429   0.69677   0.70895
  Beta virt. eigenvalues --    0.72261   0.72979   0.73964   0.75781   0.76215
  Beta virt. eigenvalues --    0.76550   0.77130   0.78269   0.79691   0.80093
  Beta virt. eigenvalues --    0.81028   0.81934   0.82699   0.83324   0.83833
  Beta virt. eigenvalues --    0.84235   0.84417   0.85049   0.86788   0.86788
  Beta virt. eigenvalues --    0.86844   0.87343   0.87642   0.89852   0.90168
  Beta virt. eigenvalues --    0.90513   0.91546   0.91690   0.92131   0.92905
  Beta virt. eigenvalues --    0.93523   0.93682   0.95545   0.95613   0.95947
  Beta virt. eigenvalues --    0.95951   0.97232   0.97848   0.98025   0.98360
  Beta virt. eigenvalues --    0.98368   1.00058   1.00266   1.01684   1.02094
  Beta virt. eigenvalues --    1.02889   1.03233   1.03982   1.06454   1.07357
  Beta virt. eigenvalues --    1.09270   1.09825   1.11119   1.11205   1.13833
  Beta virt. eigenvalues --    1.15014   1.15993   1.16037   1.16840   1.18483
  Beta virt. eigenvalues --    1.18530   1.19228   1.20150   1.23661   1.24099
  Beta virt. eigenvalues --    1.24525   1.25453   1.27102   1.27305   1.27576
  Beta virt. eigenvalues --    1.29178   1.29222   1.30143   1.32785   1.33335
  Beta virt. eigenvalues --    1.33789   1.36119   1.36281   1.37154   1.38931
  Beta virt. eigenvalues --    1.40410   1.41797   1.42709   1.42724   1.43381
  Beta virt. eigenvalues --    1.44966   1.45361   1.45386   1.46369   1.47849
  Beta virt. eigenvalues --    1.47937   1.49231   1.49879   1.49903   1.51242
  Beta virt. eigenvalues --    1.51266   1.51478   1.53270   1.54403   1.57235
  Beta virt. eigenvalues --    1.57358   1.59379   1.62098   1.65851   1.65901
  Beta virt. eigenvalues --    1.66098   1.70441   1.72491   1.72768   1.77038
  Beta virt. eigenvalues --    1.77548   1.78618   1.79782   1.79883   1.82144
  Beta virt. eigenvalues --    1.82850   1.85853   1.86833   1.86881   1.87454
  Beta virt. eigenvalues --    1.88106   1.89065   1.89921   1.91413   1.91781
  Beta virt. eigenvalues --    1.93385   1.95017   1.95164   1.96564   1.97054
  Beta virt. eigenvalues --    1.98032   1.98421   1.98614   1.98915   1.99077
  Beta virt. eigenvalues --    1.99717   2.00115   2.01385   2.02479   2.03915
  Beta virt. eigenvalues --    2.06578   2.06896   2.07489   2.09641   2.10507
  Beta virt. eigenvalues --    2.12541   2.13289   2.14221   2.15227   2.15336
  Beta virt. eigenvalues --    2.16329   2.16573   2.16761   2.19152   2.19870
  Beta virt. eigenvalues --    2.20515   2.21526   2.21830   2.22287   2.23498
  Beta virt. eigenvalues --    2.24864   2.25328   2.25859   2.27214   2.27723
  Beta virt. eigenvalues --    2.27950   2.28325   2.28373   2.28526   2.29013
  Beta virt. eigenvalues --    2.32970   2.34676   2.39300   2.39727   2.40485
  Beta virt. eigenvalues --    2.40649   2.44332   2.44350   2.46050   2.46781
  Beta virt. eigenvalues --    2.51706   2.51719   2.52123   2.57333   2.58706
  Beta virt. eigenvalues --    2.58960   2.59713   2.60065   2.61056   2.62125
  Beta virt. eigenvalues --    2.64149   2.64985   2.66491   2.68069   2.69234
  Beta virt. eigenvalues --    2.69989   2.70011   2.72420   2.73550   2.75213
  Beta virt. eigenvalues --    2.75346   2.75494   2.77419   2.78799   2.79274
  Beta virt. eigenvalues --    2.80105   2.83555   2.85434   2.88417   2.88628
  Beta virt. eigenvalues --    2.93777   2.94205   2.97505   2.98951   3.00439
  Beta virt. eigenvalues --    3.01188   3.06215   3.06882   3.15349   3.19176
  Beta virt. eigenvalues --    3.19706   3.29888   3.39863   3.47130   3.47203
  Beta virt. eigenvalues --    3.52775   3.52782   3.61209   5.66793   5.67151
  Beta virt. eigenvalues --    5.67522   5.68365   5.68859   5.69800   5.71887
  Beta virt. eigenvalues --   45.82200  45.96291  46.02171  63.11714
          Condensed to atoms (all electrons):
               1          2          3          4          5          6
     1  C    5.100183   0.525319  -0.059802  -0.062107  -0.059802   0.525318
     2  C    0.525319   4.619023   0.518979  -0.019271  -0.041193  -0.019646
     3  C   -0.059802   0.518979   5.053738   0.537453  -0.029824  -0.041193
     4  C   -0.062107  -0.019271   0.537453   4.910274   0.537453  -0.019272
     5  C   -0.059802  -0.041193  -0.029824   0.537453   5.053737   0.518979
     6  C    0.525318  -0.019646  -0.041193  -0.019272   0.518979   4.619028
     7  H    0.006720  -0.040521   0.338661  -0.040501   0.003946   0.000944
     8  H    0.001604   0.002747  -0.036227   0.365165  -0.036227   0.002747
     9  H    0.006720   0.000944   0.003946  -0.040501   0.338661  -0.040521
    10  C    0.005656  -0.000040   0.000003   0.000121  -0.004720  -0.045462
    11  C    0.004506   0.001898  -0.000034   0.000031   0.003031  -0.061656
    12  C   -0.000629   0.000002  -0.000000   0.000001   0.000105   0.007064
    13  C    0.000141   0.000000  -0.000001   0.000047   0.002041  -0.003311
    14  C    0.000002  -0.000000   0.000000  -0.000000   0.000003  -0.000026
    15  C    0.000002  -0.000000   0.000000  -0.000001   0.000079   0.000062
    16  H   -0.000024   0.000001   0.000001   0.000088   0.000103   0.000819
    17  C   -0.000000   0.000000   0.000000   0.000000  -0.000001  -0.000003
    18  H   -0.000000   0.000000   0.000000   0.000000  -0.000000   0.000002
    19  H   -0.000000   0.000000  -0.000000   0.000000   0.000001  -0.000003
    20  H    0.000000  -0.000000   0.000000  -0.000000  -0.000000  -0.000000
    21  C    0.005656  -0.045462  -0.004720   0.000121   0.000003  -0.000040
    22  C    0.004506  -0.061656   0.003031   0.000031  -0.000034   0.001898
    23  C   -0.000629   0.007064   0.000105   0.000001  -0.000000   0.000002
    24  C    0.000141  -0.003311   0.002041   0.000047  -0.000001   0.000000
    25  C    0.000002  -0.000026   0.000003  -0.000000   0.000000  -0.000000
    26  C    0.000002   0.000062   0.000079  -0.000001   0.000000  -0.000000
    27  H   -0.000024   0.000820   0.000103   0.000088   0.000001   0.000001
    28  C   -0.000000  -0.000003  -0.000001   0.000000   0.000000   0.000000
    29  H   -0.000000   0.000002  -0.000000   0.000000   0.000000   0.000000
    30  H   -0.000000  -0.000003   0.000001   0.000000  -0.000000   0.000000
    31  H    0.000000  -0.000000  -0.000000  -0.000000   0.000000  -0.000000
    32  N   -0.041456   0.246046  -0.077950   0.004668  -0.000005   0.006203
    33  N    0.001681   0.006229  -0.000148   0.000002   0.000000  -0.000036
    34  N   -0.041455   0.006203  -0.000005   0.004668  -0.077950   0.246047
    35  N    0.001681  -0.000036   0.000000   0.000002  -0.000148   0.006229
    36  C   -0.000009   0.000000   0.000000  -0.000000   0.000002  -0.000030
    37  H   -0.000001  -0.000000   0.000000   0.000000  -0.000000   0.000004
    38  H   -0.000001  -0.000000   0.000000   0.000000  -0.000000   0.000004
    39  H   -0.000012   0.000001   0.000000  -0.000000   0.000000  -0.000007
    40  C   -0.000009  -0.000030   0.000002  -0.000000   0.000000   0.000000
    41  H   -0.000001   0.000004  -0.000000   0.000000   0.000000  -0.000000
    42  H   -0.000001   0.000004  -0.000000   0.000000   0.000000  -0.000000
    43  H   -0.000012  -0.000007   0.000000  -0.000000   0.000000   0.000001
    44  Co   0.253480  -0.056556   0.006990   0.002454   0.006990  -0.056557
               7          8          9         10         11         12
     1  C    0.006720   0.001604   0.006720   0.005656   0.004506  -0.000629
     2  C   -0.040521   0.002747   0.000944  -0.000040   0.001898   0.000002
     3  C    0.338661  -0.036227   0.003946   0.000003  -0.000034  -0.000000
     4  C   -0.040501   0.365165  -0.040501   0.000121   0.000031   0.000001
     5  C    0.003946  -0.036227   0.338661  -0.004720   0.003031   0.000105
     6  C    0.000944   0.002747  -0.040521  -0.045462  -0.061656   0.007064
     7  H    0.576568  -0.004100  -0.000083  -0.000000  -0.000001   0.000000
     8  H   -0.004100   0.552318  -0.004100  -0.000002   0.000001  -0.000000
     9  H   -0.000083  -0.004100   0.576567   0.000407  -0.000188  -0.000046
    10  C   -0.000000  -0.000002   0.000407   4.640270  -0.066525   0.515080
    11  C   -0.000001   0.000001  -0.000188  -0.066525   4.794761  -0.054078
    12  C    0.000000  -0.000000  -0.000046   0.515080  -0.054078   4.662466
    13  C   -0.000000   0.000002  -0.000400   0.538671   0.004361  -0.056265
    14  C   -0.000000   0.000000  -0.000000  -0.049211   0.004801   0.533299
    15  C   -0.000000   0.000000   0.000117  -0.006000  -0.000052  -0.037976
    16  H    0.000000  -0.000010   0.006559  -0.033083  -0.000155   0.003736
    17  C    0.000000  -0.000000   0.000002  -0.039327  -0.000056  -0.008963
    18  H    0.000000  -0.000000  -0.000000   0.003999  -0.000208  -0.037821
    19  H    0.000000   0.000000  -0.000008   0.001883   0.000003   0.000931
    20  H   -0.000000  -0.000000   0.000000   0.000903   0.000003   0.002356
    21  C    0.000407  -0.000002  -0.000000  -0.000000  -0.000007   0.000000
    22  C   -0.000188   0.000001  -0.000001  -0.000007  -0.012502  -0.000002
    23  C   -0.000046  -0.000000   0.000000   0.000000  -0.000002  -0.000000
    24  C   -0.000400   0.000002  -0.000000   0.000000   0.000000   0.000000
    25  C   -0.000000   0.000000  -0.000000  -0.000000   0.000000   0.000000
    26  C    0.000117   0.000000  -0.000000  -0.000000  -0.000000   0.000000
    27  H    0.006559  -0.000010   0.000000   0.000000   0.000000  -0.000000
    28  C    0.000002  -0.000000   0.000000   0.000000  -0.000000  -0.000000
    29  H   -0.000000  -0.000000   0.000000   0.000000   0.000000  -0.000000
    30  H   -0.000008   0.000000   0.000000   0.000000   0.000000  -0.000000
    31  H    0.000000  -0.000000  -0.000000   0.000000   0.000000   0.000000
    32  N   -0.003406  -0.000097   0.000009   0.000000   0.000256   0.000000
    33  N   -0.000000  -0.000000  -0.000000   0.000000   0.000027   0.000000
    34  N    0.000009  -0.000097  -0.003406   0.256188   0.350636  -0.040993
    35  N   -0.000000  -0.000000  -0.000000  -0.047087   0.302430   0.261831
    36  C   -0.000000   0.000000  -0.000000   0.005482  -0.044994  -0.048438
    37  H    0.000000  -0.000000   0.000000  -0.000135   0.000563  -0.001036
    38  H    0.000000  -0.000000   0.000000  -0.000135   0.000558  -0.001033
    39  H    0.000000   0.000000   0.000000   0.000015   0.000595   0.002616
    40  C   -0.000000   0.000000  -0.000000   0.000000   0.000013   0.000000
    41  H    0.000000  -0.000000   0.000000  -0.000000  -0.000000  -0.000000
    42  H    0.000000  -0.000000   0.000000  -0.000000  -0.000000  -0.000000
    43  H    0.000000   0.000000   0.000000  -0.000000  -0.000002  -0.000000
    44  Co  -0.000695   0.000127  -0.000695   0.007267   0.363876   0.005807
              13         14         15         16         17         18
     1  C    0.000141   0.000002   0.000002  -0.000024  -0.000000  -0.000000
     2  C    0.000000  -0.000000  -0.000000   0.000001   0.000000   0.000000
     3  C   -0.000001   0.000000   0.000000   0.000001   0.000000   0.000000
     4  C    0.000047  -0.000000  -0.000001   0.000088   0.000000   0.000000
     5  C    0.002041   0.000003   0.000079   0.000103  -0.000001  -0.000000
     6  C   -0.003311  -0.000026   0.000062   0.000819  -0.000003   0.000002
     7  H   -0.000000  -0.000000  -0.000000   0.000000   0.000000   0.000000
     8  H    0.000002   0.000000   0.000000  -0.000010  -0.000000  -0.000000
     9  H   -0.000400  -0.000000   0.000117   0.006559   0.000002  -0.000000
    10  C    0.538671  -0.049211  -0.006000  -0.033083  -0.039327   0.003999
    11  C    0.004361   0.004801  -0.000052  -0.000155  -0.000056  -0.000208
    12  C   -0.056265   0.533299  -0.037976   0.003736  -0.008963  -0.037821
    13  C    5.020713  -0.044763   0.510344   0.355084  -0.036524   0.000274
    14  C   -0.044763   5.027141  -0.036542   0.000431   0.518307   0.362080
    15  C    0.510344  -0.036542   4.897841  -0.035397   0.554473   0.003783
    16  H    0.355084   0.000431  -0.035397   0.509670   0.003622   0.000013
    17  C   -0.036524   0.518307   0.554473   0.003622   4.890092  -0.035005
    18  H    0.000274   0.362080   0.003783   0.000013  -0.035005   0.532596
    19  H   -0.035373   0.003875   0.369157  -0.003851  -0.035749  -0.000140
    20  H    0.004030  -0.036974  -0.036483  -0.000146   0.368705  -0.004194
    21  C    0.000000  -0.000000  -0.000000   0.000000   0.000000   0.000000
    22  C    0.000000   0.000000  -0.000000   0.000000  -0.000000   0.000000
    23  C    0.000000   0.000000   0.000000  -0.000000  -0.000000  -0.000000
    24  C    0.000000  -0.000000   0.000000   0.000000   0.000000   0.000000
    25  C   -0.000000  -0.000000   0.000000  -0.000000  -0.000000   0.000000
    26  C    0.000000   0.000000  -0.000000  -0.000000  -0.000000   0.000000
    27  H    0.000000  -0.000000  -0.000000   0.000000   0.000000  -0.000000
    28  C    0.000000  -0.000000  -0.000000   0.000000   0.000000   0.000000
    29  H    0.000000   0.000000   0.000000  -0.000000   0.000000  -0.000000
    30  H   -0.000000  -0.000000   0.000000  -0.000000   0.000000   0.000000
    31  H   -0.000000   0.000000   0.000000  -0.000000   0.000000   0.000000
    32  N   -0.000000  -0.000000   0.000000   0.000000   0.000000  -0.000000
    33  N    0.000000  -0.000000   0.000000   0.000000   0.000000  -0.000000
    34  N   -0.076742   0.009457   0.005154  -0.005062  -0.000185  -0.000099
    35  N    0.009583  -0.082186  -0.000184  -0.000096   0.005398  -0.007359
    36  C   -0.000117  -0.002715   0.000009   0.000003  -0.000108   0.004304
    37  H   -0.000009   0.002509  -0.000001  -0.000000  -0.000004   0.000516
    38  H   -0.000009   0.002507  -0.000001  -0.000000  -0.000004   0.000514
    39  H    0.000005   0.000010  -0.000000  -0.000000   0.000001  -0.000033
    40  C    0.000000   0.000000  -0.000000   0.000000   0.000000  -0.000000
    41  H   -0.000000  -0.000000   0.000000  -0.000000   0.000000  -0.000000
    42  H   -0.000000  -0.000000   0.000000  -0.000000   0.000000  -0.000000
    43  H   -0.000000   0.000000  -0.000000   0.000000  -0.000000   0.000000
    44  Co  -0.001274  -0.001386   0.000170   0.000048   0.000154   0.000028
              19         20         21         22         23         24
     1  C   -0.000000   0.000000   0.005656   0.004506  -0.000629   0.000141
     2  C    0.000000  -0.000000  -0.045462  -0.061656   0.007064  -0.003311
     3  C   -0.000000   0.000000  -0.004720   0.003031   0.000105   0.002041
     4  C    0.000000  -0.000000   0.000121   0.000031   0.000001   0.000047
     5  C    0.000001  -0.000000   0.000003  -0.000034  -0.000000  -0.000001
     6  C   -0.000003  -0.000000  -0.000040   0.001898   0.000002   0.000000
     7  H    0.000000  -0.000000   0.000407  -0.000188  -0.000046  -0.000400
     8  H    0.000000  -0.000000  -0.000002   0.000001  -0.000000   0.000002
     9  H   -0.000008   0.000000  -0.000000  -0.000001   0.000000  -0.000000
    10  C    0.001883   0.000903  -0.000000  -0.000007   0.000000   0.000000
    11  C    0.000003   0.000003  -0.000007  -0.012502  -0.000002   0.000000
    12  C    0.000931   0.002356   0.000000  -0.000002  -0.000000   0.000000
    13  C   -0.035373   0.004030   0.000000   0.000000   0.000000   0.000000
    14  C    0.003875  -0.036974  -0.000000   0.000000   0.000000  -0.000000
    15  C    0.369157  -0.036483  -0.000000  -0.000000   0.000000   0.000000
    16  H   -0.003851  -0.000146   0.000000   0.000000  -0.000000   0.000000
    17  C   -0.035749   0.368705   0.000000  -0.000000  -0.000000   0.000000
    18  H   -0.000140  -0.004194   0.000000   0.000000  -0.000000   0.000000
    19  H    0.529419  -0.004541   0.000000   0.000000  -0.000000  -0.000000
    20  H   -0.004541   0.535492   0.000000   0.000000   0.000000  -0.000000
    21  C    0.000000   0.000000   4.640260  -0.066523   0.515077   0.538673
    22  C    0.000000   0.000000  -0.066523   4.794765  -0.054078   0.004361
    23  C   -0.000000   0.000000   0.515077  -0.054078   4.662467  -0.056265
    24  C   -0.000000  -0.000000   0.538673   0.004361  -0.056265   5.020719
    25  C   -0.000000   0.000000  -0.049210   0.004801   0.533299  -0.044764
    26  C    0.000000   0.000000  -0.005999  -0.000052  -0.037976   0.510343
    27  H   -0.000000  -0.000000  -0.033082  -0.000155   0.003736   0.355082
    28  C    0.000000   0.000000  -0.039327  -0.000056  -0.008962  -0.036524
    29  H    0.000000   0.000000   0.003999  -0.000208  -0.037821   0.000274
    30  H    0.000000   0.000000   0.001883   0.000003   0.000931  -0.035372
    31  H    0.000000   0.000000   0.000903   0.000003   0.002356   0.004031
    32  N    0.000000   0.000000   0.256186   0.350633  -0.040992  -0.076743
    33  N   -0.000000  -0.000000  -0.047087   0.302425   0.261831   0.009583
    34  N   -0.000092   0.000003   0.000000   0.000256   0.000000  -0.000000
    35  N    0.000004  -0.000102   0.000000   0.000027   0.000000   0.000000
    36  C   -0.000000  -0.000002   0.000000   0.000013   0.000000   0.000000
    37  H   -0.000000  -0.000000  -0.000000  -0.000000  -0.000000  -0.000000
    38  H   -0.000000  -0.000000  -0.000000  -0.000000  -0.000000  -0.000000
    39  H   -0.000000  -0.000000  -0.000000  -0.000002  -0.000000  -0.000000
    40  C    0.000000  -0.000000   0.005482  -0.044993  -0.048438  -0.000117
    41  H   -0.000000   0.000000  -0.000135   0.000557  -0.001032  -0.000009
    42  H   -0.000000   0.000000  -0.000135   0.000564  -0.001037  -0.000009
    43  H   -0.000000   0.000000   0.000015   0.000595   0.002616   0.000005
    44  Co   0.000013  -0.000012   0.007267   0.363876   0.005806  -0.001274
              25         26         27         28         29         30
     1  C    0.000002   0.000002  -0.000024  -0.000000  -0.000000  -0.000000
     2  C   -0.000026   0.000062   0.000820  -0.000003   0.000002  -0.000003
     3  C    0.000003   0.000079   0.000103  -0.000001  -0.000000   0.000001
     4  C   -0.000000  -0.000001   0.000088   0.000000   0.000000   0.000000
     5  C    0.000000   0.000000   0.000001   0.000000   0.000000  -0.000000
     6  C   -0.000000  -0.000000   0.000001   0.000000   0.000000   0.000000
     7  H   -0.000000   0.000117   0.006559   0.000002  -0.000000  -0.000008
     8  H    0.000000   0.000000  -0.000010  -0.000000  -0.000000   0.000000
     9  H   -0.000000  -0.000000   0.000000   0.000000   0.000000   0.000000
    10  C   -0.000000  -0.000000   0.000000   0.000000   0.000000   0.000000
    11  C    0.000000  -0.000000   0.000000  -0.000000   0.000000   0.000000
    12  C    0.000000   0.000000  -0.000000  -0.000000  -0.000000  -0.000000
    13  C   -0.000000   0.000000   0.000000   0.000000   0.000000  -0.000000
    14  C   -0.000000   0.000000  -0.000000  -0.000000   0.000000  -0.000000
    15  C    0.000000  -0.000000  -0.000000  -0.000000   0.000000   0.000000
    16  H   -0.000000  -0.000000   0.000000   0.000000  -0.000000  -0.000000
    17  C   -0.000000  -0.000000   0.000000   0.000000   0.000000   0.000000
    18  H    0.000000   0.000000  -0.000000   0.000000  -0.000000   0.000000
    19  H   -0.000000   0.000000  -0.000000   0.000000   0.000000   0.000000
    20  H    0.000000   0.000000  -0.000000   0.000000   0.000000   0.000000
    21  C   -0.049210  -0.005999  -0.033082  -0.039327   0.003999   0.001883
    22  C    0.004801  -0.000052  -0.000155  -0.000056  -0.000208   0.000003
    23  C    0.533299  -0.037976   0.003736  -0.008962  -0.037821   0.000931
    24  C   -0.044764   0.510343   0.355082  -0.036524   0.000274  -0.035372
    25  C    5.027141  -0.036542   0.000431   0.518308   0.362080   0.003874
    26  C   -0.036542   4.897844  -0.035398   0.554471   0.003783   0.369158
    27  H    0.000431  -0.035398   0.509672   0.003622   0.000013  -0.003851
    28  C    0.518308   0.554471   0.003622   4.890094  -0.035005  -0.035749
    29  H    0.362080   0.003783   0.000013  -0.035005   0.532599  -0.000140
    30  H    0.003874   0.369158  -0.003851  -0.035749  -0.000140   0.529417
    31  H   -0.036974  -0.036483  -0.000146   0.368705  -0.004194  -0.004541
    32  N    0.009457   0.005154  -0.005062  -0.000185  -0.000099  -0.000092
    33  N   -0.082187  -0.000184  -0.000096   0.005398  -0.007359   0.000004
    34  N   -0.000000   0.000000   0.000000   0.000000  -0.000000   0.000000
    35  N   -0.000000   0.000000   0.000000   0.000000  -0.000000  -0.000000
    36  C    0.000000  -0.000000   0.000000   0.000000  -0.000000   0.000000
    37  H   -0.000000   0.000000  -0.000000   0.000000  -0.000000  -0.000000
    38  H   -0.000000   0.000000  -0.000000   0.000000  -0.000000  -0.000000
    39  H    0.000000  -0.000000   0.000000  -0.000000   0.000000  -0.000000
    40  C   -0.002715   0.000009   0.000003  -0.000108   0.004304  -0.000000
    41  H    0.002507  -0.000001  -0.000000  -0.000004   0.000514  -0.000000
    42  H    0.002510  -0.000001  -0.000000  -0.000004   0.000516  -0.000000
    43  H    0.000010  -0.000000  -0.000000   0.000001  -0.000033  -0.000000
    44  Co  -0.001386   0.000170   0.000048   0.000154   0.000028   0.000013
              31         32         33         34         35         36
     1  C    0.000000  -0.041456   0.001681  -0.041455   0.001681  -0.000009
     2  C   -0.000000   0.246046   0.006229   0.006203  -0.000036   0.000000
     3  C   -0.000000  -0.077950  -0.000148  -0.000005   0.000000   0.000000
     4  C   -0.000000   0.004668   0.000002   0.004668   0.000002  -0.000000
     5  C    0.000000  -0.000005   0.000000  -0.077950  -0.000148   0.000002
     6  C   -0.000000   0.006203  -0.000036   0.246047   0.006229  -0.000030
     7  H    0.000000  -0.003406  -0.000000   0.000009  -0.000000  -0.000000
     8  H   -0.000000  -0.000097  -0.000000  -0.000097  -0.000000   0.000000
     9  H   -0.000000   0.000009  -0.000000  -0.003406  -0.000000  -0.000000
    10  C    0.000000   0.000000   0.000000   0.256188  -0.047087   0.005482
    11  C    0.000000   0.000256   0.000027   0.350636   0.302430  -0.044994
    12  C    0.000000   0.000000   0.000000  -0.040993   0.261831  -0.048438
    13  C   -0.000000  -0.000000   0.000000  -0.076742   0.009583  -0.000117
    14  C    0.000000  -0.000000  -0.000000   0.009457  -0.082186  -0.002715
    15  C    0.000000   0.000000   0.000000   0.005154  -0.000184   0.000009
    16  H   -0.000000   0.000000   0.000000  -0.005062  -0.000096   0.000003
    17  C    0.000000   0.000000   0.000000  -0.000185   0.005398  -0.000108
    18  H    0.000000  -0.000000  -0.000000  -0.000099  -0.007359   0.004304
    19  H    0.000000   0.000000  -0.000000  -0.000092   0.000004  -0.000000
    20  H    0.000000   0.000000  -0.000000   0.000003  -0.000102  -0.000002
    21  C    0.000903   0.256186  -0.047087   0.000000   0.000000   0.000000
    22  C    0.000003   0.350633   0.302425   0.000256   0.000027   0.000013
    23  C    0.002356  -0.040992   0.261831   0.000000   0.000000   0.000000
    24  C    0.004031  -0.076743   0.009583  -0.000000   0.000000   0.000000
    25  C   -0.036974   0.009457  -0.082187  -0.000000  -0.000000   0.000000
    26  C   -0.036483   0.005154  -0.000184   0.000000   0.000000  -0.000000
    27  H   -0.000146  -0.005062  -0.000096   0.000000   0.000000   0.000000
    28  C    0.368705  -0.000185   0.005398   0.000000   0.000000   0.000000
    29  H   -0.004194  -0.000099  -0.007359  -0.000000  -0.000000  -0.000000
    30  H   -0.004541  -0.000092   0.000004   0.000000  -0.000000   0.000000
    31  H    0.535491   0.000003  -0.000102   0.000000  -0.000000  -0.000000
    32  N    0.000003   7.221676  -0.060552  -0.000046   0.000000   0.000000
    33  N   -0.000102  -0.060552   7.063512   0.000000  -0.000000  -0.000000
    34  N    0.000000  -0.000046   0.000000   7.221662  -0.060551   0.004622
    35  N   -0.000000   0.000000  -0.000000  -0.060551   7.063506   0.300089
    36  C   -0.000000   0.000000  -0.000000   0.004622   0.300089   5.061048
    37  H    0.000000   0.000000   0.000000  -0.000067  -0.041494   0.377125
    38  H    0.000000   0.000000   0.000000  -0.000067  -0.041498   0.377131
    39  H    0.000000  -0.000000   0.000001   0.000162  -0.032010   0.376092
    40  C   -0.000002   0.004622   0.300089   0.000000  -0.000000   0.000000
    41  H   -0.000000  -0.000067  -0.041498   0.000000   0.000000  -0.000000
    42  H   -0.000000  -0.000067  -0.041494   0.000000   0.000000  -0.000000
    43  H   -0.000000   0.000162  -0.032010  -0.000000   0.000001  -0.000001
    44  Co  -0.000012  -0.072914  -0.055103  -0.072914  -0.055103  -0.007481
              37         38         39         40         41         42
     1  C   -0.000001  -0.000001  -0.000012  -0.000009  -0.000001  -0.000001
     2  C   -0.000000  -0.000000   0.000001  -0.000030   0.000004   0.000004
     3  C    0.000000   0.000000   0.000000   0.000002  -0.000000  -0.000000
     4  C    0.000000   0.000000  -0.000000  -0.000000   0.000000   0.000000
     5  C   -0.000000  -0.000000   0.000000   0.000000   0.000000   0.000000
     6  C    0.000004   0.000004  -0.000007   0.000000  -0.000000  -0.000000
     7  H    0.000000   0.000000   0.000000  -0.000000   0.000000   0.000000
     8  H   -0.000000  -0.000000   0.000000   0.000000  -0.000000  -0.000000
     9  H    0.000000   0.000000   0.000000  -0.000000   0.000000   0.000000
    10  C   -0.000135  -0.000135   0.000015   0.000000  -0.000000  -0.000000
    11  C    0.000563   0.000558   0.000595   0.000013  -0.000000  -0.000000
    12  C   -0.001036  -0.001033   0.002616   0.000000  -0.000000  -0.000000
    13  C   -0.000009  -0.000009   0.000005   0.000000  -0.000000  -0.000000
    14  C    0.002509   0.002507   0.000010   0.000000  -0.000000  -0.000000
    15  C   -0.000001  -0.000001  -0.000000  -0.000000   0.000000   0.000000
    16  H   -0.000000  -0.000000  -0.000000   0.000000  -0.000000  -0.000000
    17  C   -0.000004  -0.000004   0.000001   0.000000   0.000000   0.000000
    18  H    0.000516   0.000514  -0.000033  -0.000000  -0.000000  -0.000000
    19  H   -0.000000  -0.000000  -0.000000   0.000000  -0.000000  -0.000000
    20  H   -0.000000  -0.000000  -0.000000  -0.000000   0.000000   0.000000
    21  C   -0.000000  -0.000000  -0.000000   0.005482  -0.000135  -0.000135
    22  C   -0.000000  -0.000000  -0.000002  -0.044993   0.000557   0.000564
    23  C   -0.000000  -0.000000  -0.000000  -0.048438  -0.001032  -0.001037
    24  C   -0.000000  -0.000000  -0.000000  -0.000117  -0.000009  -0.000009
    25  C   -0.000000  -0.000000   0.000000  -0.002715   0.002507   0.002510
    26  C    0.000000   0.000000  -0.000000   0.000009  -0.000001  -0.000001
    27  H   -0.000000  -0.000000   0.000000   0.000003  -0.000000  -0.000000
    28  C    0.000000   0.000000  -0.000000  -0.000108  -0.000004  -0.000004
    29  H   -0.000000  -0.000000   0.000000   0.004304   0.000514   0.000516
    30  H   -0.000000  -0.000000  -0.000000  -0.000000  -0.000000  -0.000000
    31  H    0.000000   0.000000   0.000000  -0.000002  -0.000000  -0.000000
    32  N    0.000000   0.000000  -0.000000   0.004622  -0.000067  -0.000067
    33  N    0.000000   0.000000   0.000001   0.300089  -0.041498  -0.041494
    34  N   -0.000067  -0.000067   0.000162   0.000000   0.000000   0.000000
    35  N   -0.041494  -0.041498  -0.032010  -0.000000   0.000000   0.000000
    36  C    0.377125   0.377131   0.376092   0.000000  -0.000000  -0.000000
    37  H    0.523974  -0.039666  -0.025107  -0.000000   0.000000  -0.000000
    38  H   -0.039666   0.523970  -0.025114  -0.000000  -0.000000   0.000000
    39  H   -0.025107  -0.025114   0.468005  -0.000001   0.000000   0.000000
    40  C   -0.000000  -0.000000  -0.000001   5.061047   0.377131   0.377124
    41  H    0.000000  -0.000000   0.000000   0.377131   0.523971  -0.039667
    42  H   -0.000000   0.000000   0.000000   0.377124  -0.039667   0.523976
    43  H    0.000000   0.000000  -0.000024   0.376092  -0.025115  -0.025107
    44  Co   0.000676   0.000678   0.008537  -0.007481   0.000679   0.000675
              43         44
     1  C   -0.000012   0.253480
     2  C   -0.000007  -0.056556
     3  C    0.000000   0.006990
     4  C   -0.000000   0.002454
     5  C    0.000000   0.006990
     6  C    0.000001  -0.056557
     7  H    0.000000  -0.000695
     8  H    0.000000   0.000127
     9  H    0.000000  -0.000695
    10  C   -0.000000   0.007267
    11  C   -0.000002   0.363876
    12  C   -0.000000   0.005807
    13  C   -0.000000  -0.001274
    14  C    0.000000  -0.001386
    15  C   -0.000000   0.000170
    16  H    0.000000   0.000048
    17  C   -0.000000   0.000154
    18  H    0.000000   0.000028
    19  H   -0.000000   0.000013
    20  H    0.000000  -0.000012
    21  C    0.000015   0.007267
    22  C    0.000595   0.363876
    23  C    0.002616   0.005806
    24  C    0.000005  -0.001274
    25  C    0.000010  -0.001386
    26  C   -0.000000   0.000170
    27  H   -0.000000   0.000048
    28  C    0.000001   0.000154
    29  H   -0.000033   0.000028
    30  H   -0.000000   0.000013
    31  H   -0.000000  -0.000012
    32  N    0.000162  -0.072914
    33  N   -0.032010  -0.055103
    34  N   -0.000000  -0.072914
    35  N    0.000001  -0.055103
    36  C   -0.000001  -0.007481
    37  H    0.000000   0.000676
    38  H    0.000000   0.000678
    39  H   -0.000024   0.008537
    40  C    0.376092  -0.007481
    41  H   -0.025115   0.000679
    42  H   -0.025107   0.000675
    43  H    0.468007   0.008537
    44  Co   0.008537  16.493458
          Atomic-Atomic Spin Densities.
               1          2          3          4          5          6
     1  C    0.000000  -0.000000  -0.000000  -0.000000  -0.000000  -0.000000
     2  C   -0.000000  -0.000000   0.000000   0.000000  -0.000000  -0.000000
     3  C   -0.000000   0.000000   0.000000  -0.000000   0.000000  -0.000000
     4  C   -0.000000   0.000000  -0.000000  -0.000000  -0.000000   0.000000
     5  C   -0.000000  -0.000000   0.000000  -0.000000   0.000000   0.000000
     6  C   -0.000000  -0.000000  -0.000000   0.000000   0.000000  -0.000000
     7  H    0.000000  -0.000000  -0.000000  -0.000000   0.000000  -0.000000
     8  H    0.000000  -0.000000  -0.000000   0.000000  -0.000000  -0.000000
     9  H    0.000000  -0.000000   0.000000  -0.000000  -0.000000  -0.000000
    10  C    0.000000   0.000000  -0.000000   0.000000   0.000000   0.000000
    11  C   -0.000000   0.000000  -0.000000   0.000000  -0.000000  -0.000000
    12  C   -0.000000  -0.000000   0.000000   0.000000   0.000000   0.000000
    13  C    0.000000   0.000000  -0.000000   0.000000   0.000000   0.000000
    14  C    0.000000  -0.000000  -0.000000   0.000000   0.000000   0.000000
    15  C    0.000000   0.000000  -0.000000   0.000000  -0.000000  -0.000000
    16  H    0.000000  -0.000000   0.000000  -0.000000  -0.000000  -0.000000
    17  C   -0.000000   0.000000  -0.000000   0.000000  -0.000000  -0.000000
    18  H   -0.000000   0.000000   0.000000  -0.000000  -0.000000   0.000000
    19  H   -0.000000  -0.000000   0.000000  -0.000000  -0.000000   0.000000
    20  H    0.000000  -0.000000  -0.000000   0.000000   0.000000   0.000000
    21  C    0.000000  -0.000000   0.000000   0.000000  -0.000000   0.000000
    22  C   -0.000000  -0.000000  -0.000000   0.000000  -0.000000   0.000000
    23  C   -0.000000   0.000000   0.000000   0.000000   0.000000  -0.000000
    24  C    0.000000   0.000000   0.000000   0.000000  -0.000000   0.000000
    25  C    0.000000   0.000000   0.000000   0.000000  -0.000000  -0.000000
    26  C    0.000000  -0.000000  -0.000000   0.000000  -0.000000   0.000000
    27  H    0.000000  -0.000000  -0.000000  -0.000000   0.000000  -0.000000
    28  C   -0.000000  -0.000000  -0.000000   0.000000  -0.000000   0.000000
    29  H   -0.000000   0.000000  -0.000000  -0.000000   0.000000   0.000000
    30  H   -0.000000   0.000000   0.000000  -0.000000   0.000000  -0.000000
    31  H    0.000000   0.000000   0.000000   0.000000  -0.000000  -0.000000
    32  N   -0.000000   0.000000  -0.000000  -0.000000   0.000000  -0.000000
    33  N    0.000000   0.000000   0.000000   0.000000  -0.000000   0.000000
    34  N   -0.000000  -0.000000   0.000000  -0.000000  -0.000000   0.000000
    35  N    0.000000   0.000000  -0.000000   0.000000   0.000000   0.000000
    36  C    0.000000  -0.000000  -0.000000   0.000000  -0.000000  -0.000000
    37  H   -0.000000   0.000000  -0.000000  -0.000000  -0.000000  -0.000000
    38  H    0.000000  -0.000000   0.000000   0.000000   0.000000   0.000000
    39  H   -0.000000  -0.000000  -0.000000  -0.000000  -0.000000   0.000000
    40  C    0.000000   0.000000  -0.000000   0.000000  -0.000000  -0.000000
    41  H    0.000000   0.000000   0.000000   0.000000   0.000000  -0.000000
    42  H   -0.000000  -0.000000  -0.000000  -0.000000  -0.000000   0.000000
    43  H   -0.000000   0.000000  -0.000000  -0.000000  -0.000000  -0.000000
    44  Co  -0.000000   0.000000  -0.000000  -0.000000  -0.000000   0.000000
               7          8          9         10         11         12
     1  C    0.000000   0.000000   0.000000   0.000000  -0.000000  -0.000000
     2  C   -0.000000  -0.000000  -0.000000   0.000000   0.000000  -0.000000
     3  C   -0.000000  -0.000000   0.000000  -0.000000  -0.000000   0.000000
     4  C   -0.000000   0.000000  -0.000000   0.000000   0.000000   0.000000
     5  C    0.000000  -0.000000  -0.000000   0.000000  -0.000000   0.000000
     6  C   -0.000000  -0.000000  -0.000000   0.000000  -0.000000   0.000000
     7  H    0.000000   0.000000   0.000000  -0.000000   0.000000  -0.000000
     8  H    0.000000   0.000000   0.000000  -0.000000   0.000000   0.000000
     9  H    0.000000   0.000000   0.000000  -0.000000   0.000000  -0.000000
    10  C   -0.000000  -0.000000  -0.000000  -0.000000   0.000000  -0.000000
    11  C    0.000000   0.000000   0.000000   0.000000   0.000000   0.000000
    12  C   -0.000000   0.000000  -0.000000  -0.000000   0.000000  -0.000000
    13  C   -0.000000   0.000000  -0.000000   0.000000   0.000000   0.000000
    14  C   -0.000000  -0.000000  -0.000000   0.000000  -0.000000   0.000000
    15  C   -0.000000   0.000000  -0.000000  -0.000000  -0.000000   0.000000
    16  H    0.000000  -0.000000   0.000000  -0.000000   0.000000  -0.000000
    17  C   -0.000000  -0.000000  -0.000000   0.000000  -0.000000   0.000000
    18  H    0.000000   0.000000   0.000000   0.000000   0.000000  -0.000000
    19  H   -0.000000  -0.000000   0.000000   0.000000   0.000000  -0.000000
    20  H   -0.000000  -0.000000  -0.000000  -0.000000  -0.000000   0.000000
    21  C   -0.000000  -0.000000  -0.000000  -0.000000   0.000000   0.000000
    22  C    0.000000   0.000000   0.000000   0.000000   0.000000   0.000000
    23  C   -0.000000   0.000000  -0.000000   0.000000   0.000000  -0.000000
    24  C   -0.000000   0.000000  -0.000000   0.000000  -0.000000   0.000000
    25  C   -0.000000  -0.000000  -0.000000   0.000000  -0.000000  -0.000000
    26  C   -0.000000   0.000000  -0.000000   0.000000   0.000000  -0.000000
    27  H    0.000000  -0.000000   0.000000  -0.000000   0.000000   0.000000
    28  C   -0.000000  -0.000000  -0.000000  -0.000000   0.000000   0.000000
    29  H    0.000000   0.000000   0.000000  -0.000000   0.000000   0.000000
    30  H    0.000000  -0.000000  -0.000000  -0.000000  -0.000000   0.000000
    31  H   -0.000000  -0.000000  -0.000000   0.000000  -0.000000  -0.000000
    32  N    0.000000   0.000000   0.000000  -0.000000   0.000000   0.000000
    33  N   -0.000000  -0.000000  -0.000000   0.000000  -0.000000  -0.000000
    34  N    0.000000   0.000000   0.000000  -0.000000  -0.000000   0.000000
    35  N   -0.000000  -0.000000  -0.000000  -0.000000  -0.000000  -0.000000
    36  C   -0.000000  -0.000000   0.000000   0.000000  -0.000000   0.000000
    37  H    0.000000   0.000000   0.000000   0.000000   0.000000   0.000000
    38  H   -0.000000  -0.000000  -0.000000  -0.000000  -0.000000  -0.000000
    39  H    0.000000   0.000000   0.000000  -0.000000   0.000000   0.000000
    40  C    0.000000  -0.000000  -0.000000   0.000000  -0.000000  -0.000000
    41  H   -0.000000  -0.000000  -0.000000   0.000000  -0.000000  -0.000000
    42  H    0.000000   0.000000   0.000000  -0.000000   0.000000   0.000000
    43  H    0.000000   0.000000   0.000000  -0.000000   0.000000   0.000000
    44  Co   0.000000   0.000000   0.000000   0.000000   0.000000   0.000000
              13         14         15         16         17         18
     1  C    0.000000   0.000000   0.000000   0.000000  -0.000000  -0.000000
     2  C    0.000000  -0.000000   0.000000  -0.000000   0.000000   0.000000
     3  C   -0.000000  -0.000000  -0.000000   0.000000  -0.000000   0.000000
     4  C    0.000000   0.000000   0.000000  -0.000000   0.000000  -0.000000
     5  C    0.000000   0.000000  -0.000000  -0.000000  -0.000000  -0.000000
     6  C    0.000000   0.000000  -0.000000  -0.000000  -0.000000   0.000000
     7  H   -0.000000  -0.000000  -0.000000   0.000000  -0.000000   0.000000
     8  H    0.000000  -0.000000   0.000000  -0.000000  -0.000000   0.000000
     9  H   -0.000000  -0.000000  -0.000000   0.000000  -0.000000   0.000000
    10  C    0.000000   0.000000  -0.000000  -0.000000   0.000000   0.000000
    11  C    0.000000  -0.000000  -0.000000   0.000000  -0.000000   0.000000
    12  C    0.000000   0.000000   0.000000  -0.000000   0.000000  -0.000000
    13  C    0.000000   0.000000  -0.000000  -0.000000  -0.000000  -0.000000
    14  C    0.000000   0.000000  -0.000000   0.000000  -0.000000   0.000000
    15  C   -0.000000  -0.000000   0.000000   0.000000   0.000000   0.000000
[...]
              Bcc     0.0000     0.000     0.000     0.000  0.9387  0.2445  0.2431
 
              Baa    -0.0000    -0.000    -0.000    -0.000  0.9383  0.2460 -0.2432
    42 H(1)   Bbb     0.0000     0.000     0.000     0.000 -0.3329  0.8330 -0.4419
              Bcc     0.0000     0.000     0.000     0.000  0.0939  0.4955  0.8635
 
              Baa    -0.0000    -0.000    -0.000    -0.000 -0.6186 -0.3460  0.7055
    43 H(1)   Bbb     0.0000     0.000     0.000     0.000 -0.4830  0.8756  0.0060
              Bcc     0.0000     0.000     0.000     0.000  0.6198  0.3370  0.7087
 
              Baa    -0.0000    -0.002    -0.001    -0.001 -0.0012  0.7074  0.7068
    44 Co(59) Bbb     0.0000     0.000     0.000     0.000  1.0000  0.0017 -0.0000
              Bcc     0.0000     0.002     0.001     0.001  0.0012 -0.7068  0.7074
 

 ---------------------------------------------------------------------------------

   1 Symmetry operations used in ECPInt.
 ECPInt:  NShTT=   11781 NPrTT=   71406 LenC2=    9520 LenP2D=   32025.
 LDataN:  DoStor=T MaxTD1= 7 Len=  274
 Calling FoFJK, ICntrl=      2127 FMM=F ISym2X=0 I1Cent= 0 IOpClX= 1 NMat=1 NMatS=1 NMatT=0.
 -------------------------------------------------------------------
 Center     Atomic                   Forces (Hartrees/Bohr)
 Number     Number              X              Y              Z
 -------------------------------------------------------------------
      1        6           0.000001732   -0.103768276   -0.000007590
      2        6           0.073537292    0.045486275    0.000007924
      3        6          -0.008514707    0.003441132   -0.000001335
      4        6           0.000002398    0.005739446   -0.000001622
      5        6           0.008509396    0.003437815   -0.000001260
      6        6          -0.073537142    0.045490648    0.000006511
      7        1          -0.000954859    0.007352589   -0.000000831
      8        1          -0.000000060    0.000514566    0.000000463
      9        1           0.000956719    0.007353735   -0.000000842
     10        6          -0.013530341   -0.010090075    0.000000457
     11        6           0.000674079    0.004870479   -0.000014009
     12        6           0.013460959    0.007665605   -0.000000965
     13        6           0.012906898    0.006659105   -0.000001609
     14        6           0.001722300    0.004840142   -0.000000745
     15        6          -0.012443618    0.004591662    0.000001126
     16        1           0.000890922   -0.000825489   -0.000000407
     17        6           0.000178625   -0.010390816    0.000000184
     18        1           0.001651056    0.000694629    0.000000181
     19        1           0.000868157    0.000229017   -0.000000153
     20        1           0.001844381    0.000064089   -0.000000022
     21        6           0.013535642   -0.010109518   -0.000000674
     22        6          -0.000682986    0.004871820   -0.000017148
     23        6          -0.013459915    0.007675767   -0.000001550
     24        6          -0.012906827    0.006676628   -0.000001138
     25        6          -0.001723981    0.004835308   -0.000001124
     26        6           0.012438704    0.004580136    0.000000506
     27        1          -0.000892856   -0.000831241   -0.000000207
     28        6          -0.000173684   -0.010381488    0.000000561
     29        1          -0.001650554    0.000696201   -0.000000055
     30        1          -0.000867839    0.000230112   -0.000000168
     31        1          -0.001846506    0.000063353    0.000000046
     32        7          -0.021302830   -0.062972110    0.000007590
     33        7           0.028790153    0.022368102    0.000011318
     34        7           0.021304703   -0.062974071    0.000004171
     35        7          -0.028784289    0.022366889    0.000008850
     36        6           0.000337064   -0.010959429   -0.000001614
     37        1           0.000823030    0.001537774    0.001183872
     38        1           0.000823163    0.001538189   -0.001184099
     39        1           0.000636444    0.002862397    0.000001495
     40        6          -0.000337493   -0.010960767   -0.000001803
     41        1          -0.000822791    0.001539053   -0.001184839
     42        1          -0.000823067    0.001537653    0.001184156
     43        1          -0.000636028    0.002862000    0.000001702
     44       27          -0.000001442    0.059590963    0.000004695
 -------------------------------------------------------------------
 Cartesian Forces:  Max     0.103768276 RMS     0.018156667

 GradGradGradGradGradGradGradGradGradGradGradGradGradGradGradGradGradGrad
 Berny optimization.
 Search for a local minimum.
 Step number   1 out of a maximum of    2
 All quantities printed in internal units (Hartrees-Bohrs-Radians)
 Second derivative matrix not updated -- first step.
 ITU=  0
     Eigenvalues ---    0.00055   0.00057   0.00199   0.00246   0.00246
     Eigenvalues ---    0.00387   0.00445   0.00612   0.00657   0.00669
     Eigenvalues ---    0.00670   0.00824   0.00844   0.01335   0.01571
     Eigenvalues ---    0.01818   0.02031   0.02063   0.02536   0.02548
     Eigenvalues ---    0.03062   0.03137   0.04097   0.04199   0.04447
     Eigenvalues ---    0.04505   0.04678   0.05374   0.05529   0.06165
     Eigenvalues ---    0.06230   0.06917   0.06948   0.07058   0.07073
     Eigenvalues ---    0.07076   0.07301   0.07669   0.07736   0.09592
     Eigenvalues ---    0.09993   0.10191   0.10383   0.11591   0.11915
     Eigenvalues ---    0.11984   0.12229   0.12342   0.12841   0.13362
     Eigenvalues ---    0.13365   0.13434   0.13662   0.14785   0.15390
     Eigenvalues ---    0.15631   0.15864   0.19539   0.20114   0.20183
     Eigenvalues ---    0.21034   0.21955   0.24065   0.24887   0.28601
     Eigenvalues ---    0.29553   0.29895   0.30697   0.30871   0.31831
     Eigenvalues ---    0.31930   0.34839   0.35415   0.36665   0.37744
     Eigenvalues ---    0.37883   0.41258   0.41770   0.44580   0.47450
     Eigenvalues ---    0.48484   0.48850   0.49292   0.51045   0.52060
     Eigenvalues ---    0.53775   0.54681   0.55367   0.62872   0.63605
     Eigenvalues ---    0.68972   0.71261   0.72695   0.74267   0.86956
     Eigenvalues ---    0.90215   0.91037   0.91101   0.93171   0.94433
     Eigenvalues ---    0.95356   0.97069   1.00037   1.04403   1.12664
     Eigenvalues ---    1.16003   1.16010   1.18696   1.21039   1.24555
     Eigenvalues ---    1.31486   1.38278   1.38523   1.46487   1.47441
     Eigenvalues ---    1.49709   1.50857   1.54449   1.61257   1.64604
     Eigenvalues ---    1.66367   1.67275   1.78721   1.79888   1.86030
     Eigenvalues ---    1.90025
 Quadratic step=6.993D-01 exceeds max=3.000D-01 adjusted using Lamda=-7.276D-02.
 Angle between NR and scaled steps=  44.50 degrees.
 Angle between quadratic step and forces=  39.15 degrees.
 Linear search not attempted -- first point.
 B after Tr=    -0.000000   -0.000791   -0.000001
         Rot=    1.000000   -0.000000   -0.000000    0.000000 Ang=  -0.00 deg.
 Variable       Old X    -DE/DX   Delta X   Delta X   Delta X     New X
                                 (Linear)    (Quad)   (Total)
    X1       -0.00000   0.00000   0.00000   0.00000   0.00000   0.00000
    Y1        1.54774  -0.10377   0.00000  -0.17906  -0.17985   1.36789
    Z1        0.00019  -0.00001   0.00000  -0.00002  -0.00002   0.00018
    X2       -2.43195   0.07354   0.00000   0.09281   0.09281  -2.33914
    Y2        2.56957   0.04549   0.00000  -0.01798  -0.01877   2.55080
    Z2        0.00002   0.00001   0.00000   0.00003   0.00003   0.00005
    X3       -2.35509  -0.00851   0.00000   0.01995   0.01995  -2.33514
    Y3        5.20544   0.00344   0.00000   0.00496   0.00417   5.20962
    Z3       -0.00002  -0.00000   0.00000   0.00001   0.00001  -0.00001
    X4        0.00000   0.00000   0.00000   0.00000   0.00000   0.00000
    Y4        6.41985   0.00574   0.00000   0.03090   0.03011   6.44995
    Z4        0.00002  -0.00000   0.00000  -0.00001  -0.00000   0.00002
    X5        2.35510   0.00851   0.00000  -0.01995  -0.01995   2.33515
    Y5        5.20545   0.00344   0.00000   0.00496   0.00417   5.20962
    Z5        0.00007  -0.00000   0.00000   0.00000   0.00001   0.00008
    X6        2.43195  -0.07354   0.00000  -0.09281  -0.09281   2.33914
    Y6        2.56957   0.04549   0.00000  -0.01797  -0.01877   2.55080
    Z6        0.00009   0.00001   0.00000   0.00002   0.00002   0.00012
    X7       -4.07986  -0.00095   0.00000   0.01400   0.01400  -4.06586
    Y7        6.30027   0.00735   0.00000   0.02065   0.01986   6.32013
    Z7       -0.00007  -0.00000   0.00000  -0.00001  -0.00000  -0.00008
    X8        0.00000  -0.00000   0.00000   0.00000   0.00000   0.00000
    Y8        8.47242   0.00051   0.00000   0.02689   0.02610   8.49852
    Z8       -0.00002   0.00000   0.00000  -0.00001  -0.00000  -0.00002
    X9        4.07987   0.00096   0.00000  -0.01400  -0.01400   4.06587
    Y9        6.30027   0.00735   0.00000   0.02066   0.01987   6.32013
    Z9        0.00010  -0.00000   0.00000  -0.00001  -0.00001   0.00009
   X10        6.98371  -0.01353   0.00000  -0.03195  -0.03195   6.95176
   Y10        1.10244  -0.01009   0.00000  -0.01607  -0.01686   1.08558
   Z10       -0.00005   0.00000   0.00000   0.00000   0.00000  -0.00005
   X11        3.62871   0.00067   0.00000  -0.03715  -0.03715   3.59156
   Y11       -1.71632   0.00487   0.00000   0.00558   0.00479  -1.71153
   Z11        0.00024  -0.00001   0.00000  -0.00004  -0.00004   0.00020
   X12        7.91331   0.01346   0.00000  -0.00811  -0.00811   7.90520
   Y12       -1.40614   0.00767   0.00000   0.00843   0.00764  -1.39850
   Z12       -0.00017  -0.00000   0.00000   0.00001   0.00000  -0.00017
   X13        8.59626   0.01291   0.00000  -0.01176  -0.01176   8.58450
   Y13        3.14684   0.00666   0.00000  -0.00217  -0.00296   3.14388
   Z13       -0.00011  -0.00000   0.00000  -0.00000  -0.00000  -0.00011
   X14       10.48870   0.00172   0.00000  -0.00500  -0.00500  10.48370
   Y14       -1.88949   0.00484   0.00000   0.00470   0.00391  -1.88559
   Z14       -0.00037  -0.00000   0.00000   0.00000  -0.00000  -0.00037
   X15       11.20797  -0.01244   0.00000  -0.02339  -0.02339  11.18458
   Y15        2.65793   0.00459   0.00000  -0.00265  -0.00344   2.65449
   Z15       -0.00032   0.00000   0.00000   0.00000   0.00000  -0.00032
   X16        7.88774   0.00089   0.00000  -0.00000  -0.00000   7.88774
   Y16        5.07005  -0.00083   0.00000  -0.00083  -0.00163   5.06843
   Z16        0.00001  -0.00000   0.00000  -0.00001  -0.00001   0.00001
   X17       12.12101   0.00018   0.00000  -0.00565  -0.00565  12.11535
   Y17        0.19780  -0.01039   0.00000  -0.00858  -0.00937   0.18844
   Z17       -0.00046   0.00000   0.00000   0.00000   0.00000  -0.00046
   X18       11.18977   0.00165   0.00000   0.00605   0.00605  11.19582
   Y18       -3.81770   0.00069   0.00000   0.00789   0.00710  -3.81060
   Z18       -0.00046   0.00000   0.00000   0.00000   0.00000  -0.00046
   X19       12.51118   0.00087   0.00000  -0.01350  -0.01350  12.49768
   Y19        4.23953   0.00023   0.00000  -0.00479  -0.00558   4.23395
   Z19       -0.00037  -0.00000   0.00000  -0.00000  -0.00000  -0.00037
   X20       14.14176   0.00184   0.00000   0.00060   0.00060  14.14236
   Y20       -0.13334   0.00006   0.00000  -0.00089  -0.00169  -0.13502
   Z20       -0.00062  -0.00000   0.00000   0.00000   0.00000  -0.00062
   X21       -6.98371   0.01354   0.00000   0.03195   0.03195  -6.95175
   Y21        1.10244  -0.01011   0.00000  -0.01608  -0.01688   1.08557
   Z21       -0.00008  -0.00000   0.00000   0.00000   0.00000  -0.00007
   X22       -3.62868  -0.00068   0.00000   0.03714   0.03714  -3.59154
   Y22       -1.71633   0.00487   0.00000   0.00559   0.00480  -1.71153
   Z22        0.00018  -0.00002   0.00000  -0.00004  -0.00004   0.00014
   X23       -7.91329  -0.01346   0.00000   0.00811   0.00811  -7.90518
   Y23       -1.40616   0.00768   0.00000   0.00843   0.00764  -1.39851
   Z23       -0.00012  -0.00000   0.00000   0.00000   0.00000  -0.00012
   X24       -8.59626  -0.01291   0.00000   0.01176   0.01176  -8.58450
   Y24        3.14682   0.00668   0.00000  -0.00216  -0.00295   3.14387
   Z24       -0.00010  -0.00000   0.00000  -0.00000  -0.00000  -0.00011
   X25      -10.48868  -0.00172   0.00000   0.00500   0.00500 -10.48368
   Y25       -1.88950   0.00484   0.00000   0.00470   0.00391  -1.88560
   Z25       -0.00019  -0.00000   0.00000  -0.00000  -0.00000  -0.00019
   X26      -11.20797   0.01244   0.00000   0.02339   0.02339 -11.18458
   Y26        2.65792   0.00458   0.00000  -0.00265  -0.00344   2.65448
   Z26       -0.00019   0.00000   0.00000  -0.00000  -0.00000  -0.00019
   X27       -7.88774  -0.00089   0.00000  -0.00000  -0.00000  -7.88774
   Y27        5.07005  -0.00083   0.00000  -0.00084  -0.00163   5.06841
   Z27       -0.00005  -0.00000   0.00000  -0.00000  -0.00000  -0.00005
   X28      -12.12100  -0.00017   0.00000   0.00566   0.00566 -12.11534
   Y28        0.19778  -0.01038   0.00000  -0.00857  -0.00936   0.18842
   Z28       -0.00024   0.00000   0.00000   0.00000   0.00000  -0.00024
   X29      -11.18976  -0.00165   0.00000  -0.00605  -0.00605 -11.19580
   Y29       -3.81771   0.00070   0.00000   0.00789   0.00710  -3.81061
   Z29       -0.00019  -0.00000   0.00000  -0.00000  -0.00000  -0.00020
   X30      -12.51118  -0.00087   0.00000   0.01350   0.01350 -12.49769
   Y30        4.23951   0.00023   0.00000  -0.00479  -0.00558   4.23393
   Z30       -0.00020  -0.00000   0.00000  -0.00000  -0.00000  -0.00021
   X31      -14.14175  -0.00185   0.00000  -0.00060  -0.00060 -14.14235
   Y31       -0.13336   0.00006   0.00000  -0.00089  -0.00168  -0.13504
   Z31       -0.00029   0.00000   0.00000   0.00000   0.00000  -0.00029
   X32       -4.36537  -0.02130   0.00000   0.03102   0.03102  -4.33434
   Y32        0.89128  -0.06297   0.00000  -0.05862  -0.05941   0.83186
   Z32        0.00002   0.00001   0.00000   0.00002   0.00002   0.00004
   X33       -5.89688   0.02879   0.00000   0.05060   0.05060  -5.84628
   Y33       -3.03217   0.02237   0.00000   0.02951   0.02872  -3.00345
   Z33       -0.00009   0.00001   0.00000   0.00002   0.00002  -0.00007
   X34        4.36537   0.02130   0.00000  -0.03102  -0.03102   4.33435
   Y34        0.89128  -0.06297   0.00000  -0.05862  -0.05941   0.83187
   Z34        0.00014   0.00000   0.00000   0.00001   0.00001   0.00014
   X35        5.89689  -0.02878   0.00000  -0.05059  -0.05059   5.84629
   Y35       -3.03215   0.02237   0.00000   0.02950   0.02871  -3.00344
   Z35       -0.00006   0.00001   0.00000   0.00001   0.00001  -0.00005
   X36        6.04624   0.00034   0.00000  -0.01590  -0.01590   6.03034
   Y36       -5.72599  -0.01096   0.00000   0.00888   0.00809  -5.71790
   Z36        0.00002  -0.00000   0.00000   0.00000   0.00000   0.00002
   X37        7.02138   0.00082   0.00000  -0.00055  -0.00055   7.02083
   Y37       -6.42941   0.00154   0.00000   0.02002   0.01923  -6.41018
   Z37       -1.69034   0.00118   0.00000   0.00525   0.00525  -1.68509
   X38        7.02051   0.00082   0.00000  -0.00054  -0.00054   7.01996
   Y38       -6.42943   0.00154   0.00000   0.02002   0.01922  -6.41021
   Z38        1.69087  -0.00118   0.00000  -0.00525  -0.00525   1.68562
   X39        4.13079   0.00064   0.00000  -0.00941  -0.00941   4.12138
   Y39       -6.50402   0.00286   0.00000   0.00890   0.00811  -6.49591
   Z39       -0.00051   0.00000   0.00000   0.00001   0.00001  -0.00051
   X40       -6.04623  -0.00034   0.00000   0.01590   0.01590  -6.03033
   Y40       -5.72600  -0.01096   0.00000   0.00888   0.00809  -5.71791
   Z40        0.00008  -0.00000   0.00000   0.00000   0.00000   0.00009
   X41       -7.02037  -0.00082   0.00000   0.00054   0.00054  -7.01983
   Y41       -6.42941   0.00154   0.00000   0.02002   0.01923  -6.41019
   Z41        1.69103  -0.00118   0.00000  -0.00525  -0.00525   1.68578
   X42       -7.02148  -0.00082   0.00000   0.00055   0.00055  -7.02093
   Y42       -6.42947   0.00154   0.00000   0.02002   0.01923  -6.41023
   Z42       -1.69018   0.00118   0.00000   0.00525   0.00525  -1.68493
   X43       -4.13077  -0.00064   0.00000   0.00941   0.00941  -4.12136
   Y43       -6.50402   0.00286   0.00000   0.00890   0.00811  -6.49591
   Z43       -0.00057   0.00000   0.00000   0.00001   0.00001  -0.00056
   X44        0.00001  -0.00000   0.00000  -0.00001  -0.00001   0.00001
   Y44       -2.36190   0.05959   0.00000   0.10213   0.10134  -2.26056
   Z44        0.00025   0.00000   0.00000  -0.00003  -0.00003   0.00022
         Item               Value     Threshold  Converged?
 Maximum Force            0.103768     0.000450     NO 
 RMS     Force            0.018157     0.000300     NO 
 Maximum Displacement     0.179847     0.001800     NO 
 RMS     Displacement     0.026176     0.001200     NO 
 Predicted change in Energy=-2.762204D-02
 GradGradGradGradGradGradGradGradGradGradGradGradGradGradGradGradGradGrad

 Unable to Open any file for archive entry.
 1\1\GINC-X11P1N5\Force\UPBE1PBE\GenECP\C22H17Co1N4\MAYUMIAO\17-Jul-202
 4\0\\# pbe1pbe em=gd3bj genecp g09default scf=(xqc,maxcycle=64) force 
 guess=read nosymm\\Title Card\\0,1\C,-0.00000046,0.81902801,0.00010207
 \C,-1.2869338,1.3597574,0.00000997\C,-1.24625814,2.75460161,-0.0000108
 \C,0.00000122,3.39723621,0.00001167\C,1.24626461,2.75460287,0.00003686
 \C,1.28693416,1.35975541,0.00004938\H,-2.15897128,3.33395911,-0.000039
 44\H,0.00000081,4.48341187,-0.00000971\H,2.15897535,3.3339578,0.000050
 89\C,3.69562017,0.58338531,-0.00002868\C,1.92022942,-0.90823786,0.0001
 2469\C,4.18754068,-0.7440949,-0.00009202\C,4.54894449,1.66523594,-0.00
 005782\C,5.55037887,-0.99987675,-0.00019573\C,5.93100094,1.40651352,-0
 .00017079\H,4.17401127,2.6829557,0.00000751\C,6.41416018,0.10467323,-0
 .00024298\H,5.9213729,-2.02023854,-0.00024149\H,6.62062995,2.24346078,
 -0.00019613\H,7.48349667,-0.07055824,-0.00032893\C,-3.69561881,0.58338
 842,-0.00004082\C,-1.92021292,-0.90824286,0.00009402\C,-4.1875337,-0.7
 4410572,-0.0000656\C,-4.54894473,1.6652234,-0.00005424\C,-5.55037147,-
 0.99988242,-0.00009836\C,-5.93099968,1.40651146,-0.00010047\H,-4.17401
 085,2.68295292,-0.00002409\C,-6.41415839,0.10466145,-0.00012493\H,-5.9
 213654,-2.02024723,-0.00010214\H,-6.62063384,2.24345274,-0.00010831\H,
 -7.48349154,-0.07056996,-0.00015418\N,-2.31005205,0.47164358,0.0000087
 5\N,-3.12049264,-1.60455266,-0.00004643\N,2.31005497,0.47164571,0.0000
 7179\N,3.12049802,-1.60454666,-0.00003396\C,3.19953386,-3.03006194,0.0
 0000807\H,3.71555241,-3.40229913,-0.89448859\H,3.71509266,-3.40231032,
 0.89476892\H,2.18591806,-3.44177847,-0.00027206\C,-3.19952672,-3.03006
 656,0.00004492\H,-3.71502031,-3.40229876,0.89485246\H,-3.71560687,-3.4
 0232755,-0.89440654\H,-2.1859101,-3.44177927,-0.00030121\Co,0.00000774
 ,-1.24986131,0.00013438\\Version=ES64L-G16RevC.01\HF=-1212.1111624\S2=
 0.\S2-1=0.\S2A=0.\RMSD=2.391e-09\RMSF=1.816e-02\Dipole=0.0000602,-1.44
 68766,-0.000097\Quadrupole=13.5127648,7.1714868,-20.6842515,-0.0001196
 ,-0.0003998,0.0002176\PG=C01 [X(C22H17Co1N4)]\\@
 The archive entry for this job was punched.


      THE ONE-EYED VIEW OF OUR UNIVERSE SAYS YOU MUST NOT LOOK
      FAR AFIELD FOR PROBLEMS.  SUCH PROBLEMS MAY NEVER ARRIVE. 
      INSTEAD, TEND TO THE WOLF WITHIN YOUR FENCES.
      THE PACKS RANGING OUTSIDE MAY NOT EVEN EXIST.

                              -- THE AZHAR BOOK SHAMRA I:4
                                 CHILDREN OF DUNE, BY FRANK HERBERT
 Job cpu time:       0 days  0 hours 34 minutes 52.1 seconds.
 Elapsed time:       0 days  0 hours  0 minutes 38.1 seconds.
 File lengths (MBytes):  RWF=    184 Int=      0 D2E=      0 Chk=    162 Scr=      1
 Normal termination of Gaussian 16 at Wed Jul 17 21:12:44 2024.
