 Entering Gaussian System, Link 0=g16
 Input=JOBS/25_B.gjf
 Output=JOBS/25_B.log
 Initial command:
 /data/app/gaussian/C01-avx2//g16/l1.exe "/tmp/Gau-2078249.inp" -scrdir="/tmp/"
 Entering Link 1 = /data/app/gaussian/C01-avx2//g16/l1.exe PID=   2078250.
  
 Copyright (c) 1988-2019, Gaussian, Inc.  All Rights Reserved.
  
 This is part of the Gaussian(R) 16 program.  It is based on
 the Gaussian(R) 09 system (copyright 2009, Gaussian, Inc.),
 the Gaussian(R) 03 system (copyright 2003, Gaussian, Inc.),
 the Gaussian(R) 98 system (copyright 1998, Gaussian, Inc.),
 the Gaussian(R) 94 system (copyright 1995, Gaussian, Inc.),
 the Gaussian 92(TM) system (copyright 1992, Gaussian, Inc.),
 the Gaussian 90(TM) system (copyright 1990, Gaussian, Inc.),
 the Gaussian 88(TM) system (copyright 1988, Gaussian, Inc.),
 the Gaussian 86(TM) system (copyright 1986, Carnegie Mellon
 University), and the Gaussian 82(TM) system (copyright 1983,
 Carnegie Mellon University). Gaussian is a federally registered
 trademark of Gaussian, Inc.
  
 This software contains proprietary and confidential information,
 including trade secrets, belonging to Gaussian, Inc.
  
 This software is provided under written license and may be
 used, copied, transmitted, or stored only in accord with that
 written license.
  
 The following legend is applicable only to US Government
 contracts under FAR:
  
                    RESTRICTED RIGHTS LEGEND
  
 Use, reproduction and disclosure by the US Government is
 subject to restrictions as set forth in subparagraphs (a)
 and (c) of the Commercial Computer Software - Restricted
 Rights clause in FAR 52.227-19.
  
 Gaussian, Inc.
 340 Quinnipiac St., Bldg. 40, Wallingford CT 06492
  
  
 ---------------------------------------------------------------
 Warning -- This program may not be used in any manner that
 competes with the business of Gaussian, Inc. or will provide
 assistance to any competitor of Gaussian, Inc.  The licensee
 of this program is prohibited from giving any competitor of
 Gaussian, Inc. access to this program.  By using this program,
 the user acknowledges that Gaussian, Inc. is engaged in the
 business of creating and licensing software in the field of
 computational chemistry and represents and warrants to the
 licensee that it is not a competitor of Gaussian, Inc. and that
 it will not use this program in any manner prohibited above.
 ---------------------------------------------------------------
  

 Cite this work as:
 Gaussian 16, Revision C.01,
 M. J. Frisch, G. W. Trucks, H. B. Schlegel, G. E. Scuseria, 
 M. A. Robb, J. R. Cheeseman, G. Scalmani, V. Barone, 
 G. A. Petersson, H. Nakatsuji, X. Li, M. Caricato, A. V. Marenich, 
 J. Bloino, B. G. Janesko, R. Gomperts, B. Mennucci, H. P. Hratchian, 
 J. V. Ortiz, A. F. Izmaylov, J. L. Sonnenberg, D. Williams-Young, 
 F. Ding, F. Lipparini, F. Egidi, J. Goings, B. Peng, A. Petrone, 
 T. Henderson, D. Ranasinghe, V. G. Zakrzewski, J. Gao, N. Rega, 
 G. Zheng, W. Liang, M. Hada, M. Ehara, K. Toyota, R. Fukuda, 
 J. Hasegawa, M. Ishida, T. Nakajima, Y. Honda, O. Kitao, H. Nakai, 
 T. Vreven, K. Throssell, J. A. Montgomery, Jr., J. E. Peralta, 
 F. Ogliaro, M. J. Bearpark, J. J. Heyd, E. N. Brothers, K. N. Kudin, 
 V. N. Staroverov, T. A. Keith, R. Kobayashi, J. Normand, 
 K. Raghavachari, A. P. Rendell, J. C. Burant, S. S. Iyengar, 
 J. Tomasi, M. Cossi, J. M. Millam, M. Klene, C. Adamo, R. Cammi, 
 J. W. Ochterski, R. L. Martin, K. Morokuma, O. Farkas, 
 J. B. Foresman, and D. J. Fox, Gaussian, Inc., Wallingford CT, 2019.
 
 ******************************************
 Gaussian 16:  ES64L-G16RevC.01  3-Jul-2019
                17-Jul-2024 
 ******************************************
 %chk=b.chk
 %nprocshared=56
 Will use up to   56 processors via shared memory.
 %mem=96gb
 ----------------------------------------------------------------------
 # pbe1pbe em=gd3bj genecp g09default scf=(xqc,maxcycle=64) force guess
 =read nosymm
 ----------------------------------------------------------------------
 1/10=7,30=1,38=1,158=3,167=1/1,3;
 2/12=2,15=1,17=6,18=5,40=1/2;
 3/5=7,11=2,16=1,17=8,25=1,27=10,30=1,71=1,74=-13,75=-4,116=-2,124=41,158=3/1,2,3;
 4/5=1,60=-1/1;
 5/5=2,7=64,8=3,13=1,38=6,87=10/2,8;
 6/7=2,8=2,9=2,10=2,28=1,87=10/1;
 7/29=1,30=1,87=10/1,2,3,16;
 1/10=7,30=1,158=3,167=1/3;
 99//99;
 Using 2006 physical constants.
 ----------
 Title Card
 ----------
 Symbolic Z-matrix:
 Charge =  0 Multiplicity = 3
 6                    0.         0.81903   0.0001 
 6                    -1.28693   1.35976   0.00001 
 6                    -1.24626   2.7546   -0.00001 
 6                     0.        3.39724   0.00001 
 6                     1.24626   2.7546    0.00004 
 6                     1.28693   1.35976   0.00005 
 1                    -2.15897   3.33396  -0.00004 
 1                     0.        4.48341  -0.00001 
 1                     2.15898   3.33396   0.00005 
 6                     3.69562   0.58339  -0.00003 
 6                     1.92023  -0.90824   0.00012 
 6                     4.18754  -0.74409  -0.00009 
 6                     4.54894   1.66524  -0.00006 
 6                     5.55038  -0.99988  -0.0002 
 6                     5.931     1.40651  -0.00017 
 1                     4.17401   2.68296   0.00001 
 6                     6.41416   0.10467  -0.00024 
 1                     5.92137  -2.02024  -0.00024 
 1                     6.62063   2.24346  -0.0002 
 1                     7.4835   -0.07056  -0.00033 
 6                    -3.69562   0.58339  -0.00004 
 6                    -1.92021  -0.90824   0.00009 
 6                    -4.18753  -0.74411  -0.00007 
 6                    -4.54894   1.66522  -0.00005 
 6                    -5.55037  -0.99988  -0.0001 
 6                    -5.931     1.40651  -0.0001 
 1                    -4.17401   2.68295  -0.00002 
 6                    -6.41416   0.10466  -0.00012 
 1                    -5.92137  -2.02025  -0.0001 
 1                    -6.62063   2.24345  -0.00011 
 1                    -7.48349  -0.07057  -0.00015 
 7                    -2.31005   0.47164   0.00001 
 7                    -3.12049  -1.60455  -0.00005 
 7                     2.31005   0.47165   0.00007 
 7                     3.1205   -1.60455  -0.00003 
 6                     3.19953  -3.03006   0.00001 
 1                     3.71555  -3.4023   -0.89449 
 1                     3.71509  -3.40231   0.89477 
 1                     2.18592  -3.44178  -0.00027 
 6                    -3.19953  -3.03007   0.00004 
 1                    -3.71502  -3.4023    0.89485 
 1                    -3.71561  -3.40233  -0.89441 
 1                    -2.18591  -3.44178  -0.0003 
 27                    0.00001  -1.24986   0.00013 
 

 GradGradGradGradGradGradGradGradGradGradGradGradGradGradGradGradGradGrad
 Berny optimization.
 Initialization pass.
 Trust Radius=3.00D-01 FncErr=1.00D-07 GrdErr=1.00D-07 EigMax=2.50D+02 EigMin=1.00D-04
 Number of steps in this run=      2 maximum allowed number of steps=      2.
 GradGradGradGradGradGradGradGradGradGradGradGradGradGradGradGradGradGrad

                          Input orientation:                          
 ---------------------------------------------------------------------
 Center     Atomic      Atomic             Coordinates (Angstroms)
 Number     Number       Type             X           Y           Z
 ---------------------------------------------------------------------
      1          6           0       -0.000000    0.819028    0.000102
      2          6           0       -1.286934    1.359757    0.000010
      3          6           0       -1.246258    2.754602   -0.000011
      4          6           0        0.000001    3.397236    0.000012
      5          6           0        1.246265    2.754603    0.000037
      6          6           0        1.286934    1.359755    0.000049
      7          1           0       -2.158971    3.333959   -0.000039
      8          1           0        0.000001    4.483412   -0.000010
      9          1           0        2.158975    3.333958    0.000051
     10          6           0        3.695620    0.583385   -0.000029
     11          6           0        1.920229   -0.908238    0.000125
     12          6           0        4.187541   -0.744095   -0.000092
     13          6           0        4.548944    1.665236   -0.000058
     14          6           0        5.550379   -0.999877   -0.000196
     15          6           0        5.931001    1.406514   -0.000171
     16          1           0        4.174011    2.682956    0.000008
     17          6           0        6.414160    0.104673   -0.000243
     18          1           0        5.921373   -2.020239   -0.000241
     19          1           0        6.620630    2.243461   -0.000196
     20          1           0        7.483497   -0.070558   -0.000329
     21          6           0       -3.695619    0.583388   -0.000041
     22          6           0       -1.920213   -0.908243    0.000094
     23          6           0       -4.187534   -0.744106   -0.000066
     24          6           0       -4.548945    1.665223   -0.000054
     25          6           0       -5.550371   -0.999882   -0.000098
     26          6           0       -5.931000    1.406511   -0.000100
     27          1           0       -4.174011    2.682953   -0.000024
     28          6           0       -6.414158    0.104661   -0.000125
     29          1           0       -5.921365   -2.020247   -0.000102
     30          1           0       -6.620634    2.243453   -0.000108
     31          1           0       -7.483492   -0.070570   -0.000154
     32          7           0       -2.310052    0.471644    0.000009
     33          7           0       -3.120493   -1.604553   -0.000046
     34          7           0        2.310055    0.471646    0.000072
     35          7           0        3.120498   -1.604547   -0.000034
     36          6           0        3.199534   -3.030062    0.000008
     37          1           0        3.715552   -3.402299   -0.894489
     38          1           0        3.715093   -3.402310    0.894769
     39          1           0        2.185918   -3.441778   -0.000272
     40          6           0       -3.199527   -3.030067    0.000045
     41          1           0       -3.715020   -3.402299    0.894852
     42          1           0       -3.715607   -3.402328   -0.894407
     43          1           0       -2.185910   -3.441779   -0.000301
     44         27           0        0.000008   -1.249861    0.000134
 ---------------------------------------------------------------------
                    Distance matrix (angstroms):
                    1          2          3          4          5
     1  C    0.000000
     2  C    1.395918   0.000000
     3  C    2.302087   1.395437   0.000000
     4  C    2.578208   2.409880   1.402192   0.000000
     5  C    2.302092   2.891831   2.492523   1.402195   0.000000
     6  C    1.395918   2.573868   2.891826   2.409881   1.395440
     7  H    3.314519   2.158222   1.081064   2.159900   3.454169
     8  H    3.664384   3.378375   2.131184   1.086176   2.131186
     9  H    3.314521   3.971367   3.454167   2.159901   1.081061
    10  C    3.703126   5.042678   5.397809   4.644928   3.273153
    11  C    2.582776   3.928065   4.841801   4.714274   3.724330
    12  C    4.469771   5.864816   6.462743   5.889491   4.570776
    13  C    4.626983   5.843868   5.896702   4.867516   3.477703
    14  C    5.840815   7.233030   7.764688   7.081052   5.711525
    15  C    5.960027   7.218086   7.302766   6.256176   4.874844
    16  H    4.571280   5.618966   5.420743   4.234685   2.928623
    17  C    6.453817   7.802697   8.105808   7.209883   5.807691
    18  H    6.566894   7.961411   8.612435   8.025688   6.682496
    19  H    6.772131   7.956789   7.883476   6.720411   5.398617
    20  H    7.536186   8.886296   9.175519   8.247927   6.847233
    21  C    3.703123   2.530714   3.273154   4.644927   5.397813
    22  C    2.582766   2.354754   3.724331   4.714273   4.841799
    23  C    4.469768   3.583255   4.570783   5.889496   6.462749
    24  C    4.626980   3.276282   3.477712   4.867523   5.896711
    25  C    5.840809   4.872864   5.711527   7.081051   7.764691
    26  C    5.960024   4.644301   4.874849   6.256177   7.302772
    27  H    4.571278   3.175856   2.928629   4.234687   5.420749
    28  C    6.453816   5.278608   5.807700   7.209888   8.105817
    29  H    6.566890   5.736060   6.682500   8.025691   8.612439
    30  H    6.772132   5.406410   5.398628   6.720419   7.883487
    31  H    7.536181   6.359494   6.847238   8.247930   9.175524
    32  N    2.336025   1.354813   2.518641   3.727659   4.226025
    33  N    3.951103   3.485552   4.744995   5.895369   6.170154
    34  N    2.336029   3.705006   4.226021   3.727657   2.518639
    35  N    3.951104   5.311549   6.170149   5.895365   4.744991
    36  C    5.005249   6.276855   7.295711   7.179636   6.105539
    37  H    5.694315   6.964351   7.957831   7.799944   6.693654
    38  H    5.694036   6.964061   7.957587   7.799765   6.693522
    39  H    4.788811   5.925829   7.083429   7.179858   6.267224
    40  C    5.005247   4.788378   6.105542   7.179638   7.295715
    41  H    5.693992   5.419735   6.693503   7.799731   7.957542
    42  H    5.694359   5.419953   6.693684   7.799987   7.957889
    43  H    4.788808   4.884968   6.267223   7.179857   7.083430
    44  Co   2.068889   2.909696   4.193912   4.647098   4.193911
                    6          7          8          9         10
     6  C    0.000000
     7  H    3.971366   0.000000
     8  H    3.378376   2.445895   0.000000
     9  H    2.158224   4.317947   2.445898   0.000000
    10  C    2.530715   6.468531   5.372877   3.150703   0.000000
    11  C    2.354752   5.885245   5.723388   4.248909   2.318826
    12  C    3.583253   7.543788   6.697934   4.554733   1.415694
    13  C    3.276283   6.912364   5.351168   2.914890   1.377884
    14  C    4.872866   8.843993   7.802125   5.503066   2.438616
    15  C    4.644302   8.316411   6.681622   4.235944   2.382114
    16  H    3.175858   6.366355   4.545768   2.117587   2.153382
    17  C    5.278606   9.161161   7.766260   5.341805   2.760367
    18  H    5.736060   9.693265   8.795460   6.543933   3.425322
    19  H    5.406408   8.847066   6.989285   4.592989   3.363262
    20  H    6.359496  10.225846   8.760214   6.319910   3.843911
    21  C    5.042676   3.150702   5.372875   6.468532   7.391239
    22  C    3.928054   4.248916   5.723387   5.885239   5.810554
    23  C    5.864813   4.554742   6.697939   7.543791   7.994145
    24  C    5.843868   2.914902   5.351177   6.912371   8.315240
    25  C    7.233024   5.503070   7.802125   8.843992   9.380570
    26  C    7.218085   4.235948   6.681623   8.316414   9.661747
    27  H    5.618965   2.117591   4.545770   6.366359   8.144893
    28  C    7.802697   5.341814   7.766266   9.161167  10.121107
    29  H    7.961407   6.543939   8.795462   9.693267   9.963198
    30  H    7.956793   4.592999   6.989293   8.847075  10.448967
    31  H    8.886293   6.319916   8.760217  10.225848  11.198223
    32  N    3.705004   2.866300   4.629323   5.307075   6.006712
    33  N    5.311547   5.031245   6.841110   7.229223   7.158664
    34  N    1.354812   5.307074   4.629322   2.866296   1.390064
    35  N    3.485548   7.229221   6.841107   5.031238   2.262258
    36  C    4.788375   8.319516   8.166352   6.448528   3.647342
    37  H    5.419921   8.982608   8.762982   6.971391   4.084867
    38  H    5.419755   8.982351   8.762828   6.971322   4.084949
    39  H    4.884967   8.049142   8.221124   6.775790   4.298970
    40  C    6.276852   6.448533   8.166354   8.319516   7.784606
    41  H    6.964006   6.971319   8.762796   8.982296   8.461920
    42  H    6.964403   6.971411   8.763023   8.982667   8.462394
    43  H    5.925823   6.775792   8.221123   8.049139   7.127015
    44  Co   2.909687   5.066814   5.733273   5.066808   4.125330
                   11         12         13         14         15
    11  C    0.000000
    12  C    2.273245   0.000000
    13  C    3.678710   2.436286   0.000000
    14  C    3.631306   1.386633   2.847050   0.000000
    15  C    4.630806   2.768532   1.406064   2.436306   0.000000
    16  H    4.239835   3.427077   1.084587   3.931621   2.171708
    17  C    4.606669   2.382906   2.431951   1.402194   1.388608
    18  H    4.152794   2.152839   3.932719   1.085714   3.426766
    19  H    5.659238   3.852974   2.150866   3.415359   1.084467
    20  H    5.625980   3.364072   3.409484   2.144896   2.142892
    21  C    5.810568   7.994149   8.315240   9.380576   9.661746
    22  C    3.840442   6.109959   6.962240   7.471154   8.185332
    23  C    6.109968   8.375074   9.062614   9.741271  10.344559
    24  C    6.962249   9.062615   9.097889  10.445051  10.483138
    25  C    7.471163   9.741271  10.445049  11.100750  11.730842
    26  C    8.185344  10.344562  10.483137  11.730846  11.862001
    27  H    7.073642   9.036603   8.782124  10.398413  10.185311
    28  C    8.395712  10.635620  11.073618  12.015413  12.413613
    29  H    7.920049  10.189139  11.100008  11.517034  12.337799
    30  H    9.103818  11.213477  11.184535  12.595743  12.579507
    31  H    9.440956  11.690450  12.156995  13.066958  13.495569
    32  N    4.449647   6.610350   6.962076   7.996984   8.293910
    33  N    5.088589   7.358515   8.337373   8.691930   9.539185
    34  N    1.433891   2.236734   2.537180   3.558803   3.739683
    35  N    1.387621   1.370751   3.568184   2.503986   4.118909
    36  C    2.477652   2.490342   4.885359   3.106143   5.210001
    37  H    3.200603   2.844076   5.212913   3.152456   5.369609
    38  H    3.200362   2.844309   5.213065   3.152923   5.369912
    39  H    2.547434   3.359165   5.627210   4.157220   6.126302
    40  C    5.542027   7.732686   9.060059   8.982345  10.151344
    41  H    6.227111   8.385550   9.735188   9.613551  10.815335
    42  H    6.227626   8.386044   9.735649   9.614046  10.815806
    43  H    4.824854   6.920865   8.452211   8.112525   9.454638
    44  Co   1.950374   4.217965   5.402834   5.555998   6.498693
                   16         17         18         19         20
    16  H    0.000000
    17  C    3.415525   0.000000
    18  H    5.017301   2.181305   0.000000
    19  H    2.485779   2.148730   4.320659   0.000000
    20  H    4.305175   1.083599   2.498296   2.469661   0.000000
    21  C    8.144892  10.121107   9.963202  10.448963  11.198226
    22  C    7.073632   8.395700   7.920038   9.103803   9.440946
    23  C    9.036602  10.635617  10.189137  11.213472  11.690450
    24  C    8.782126  11.073617  11.100008  11.184532  12.156997
    25  C   10.398409  12.015409  11.517033  12.595735  13.066957
    26  C   10.185311  12.413612  12.337802  12.579503  13.495571
    27  H    8.348022  10.897564  11.137180  10.803584  11.978285
    28  C   10.897566  12.828319  12.517209  13.209094  13.898760
    29  H   11.137179  12.517207  11.842738  13.246919  13.545908
    30  H   10.803589  13.209097  13.246924  13.241264  14.292695
    31  H   11.978283  13.898757  13.545907  14.292690  14.966988
    32  N    6.850765   8.731927   8.600339   9.104747   9.808546
    33  N    8.461236   9.686643   9.051416  10.473618  10.714370
    34  N    2.892097   4.120479   4.387608   4.660513   5.201777
    35  N    4.415039   3.710747   2.831554   5.201739   4.624811
    36  C    5.795531   4.490032   2.903128   6.286011   5.206822
    37  H    6.167709   4.514534   2.752347   6.412007   5.108564
    38  H    6.167793   4.514969   2.752969   6.412319   5.109074
    39  H    6.439323   5.518637   3.996799   7.210313   6.279289
    40  C    9.327791  10.111853   9.176631  11.146550  11.085381
    41  H   10.003394  10.756410   9.776060  11.811070  11.717876
    42  H   10.003835  10.756894   9.776558  11.811534  11.718361
    43  H    8.829551   9.302609   8.230967  10.482228  10.240242
    44  Co   5.734924   6.555617   5.971268   7.485716   7.575841
                   21         22         23         24         25
    21  C    0.000000
    22  C    2.318842   0.000000
    23  C    1.415705   2.273254   0.000000
    24  C    1.377872   3.678717   2.436285   0.000000
    25  C    2.438617   3.631315   1.386632   2.847041   0.000000
    26  C    2.382112   4.630820   2.768543   1.406061   2.436311
    27  H    2.153376   4.239846   3.427085   1.084596   3.931621
    28  C    2.760369   4.606682   2.382911   2.431949   1.402193
    29  H    3.425327   4.152803   2.152838   3.932713   1.085717
    30  H    3.363261   5.659253   3.852983   2.150871   3.415360
    31  H    3.843910   5.625990   3.364073   3.409478   2.144895
    32  N    1.390066   1.433897   2.236735   2.537178   3.558800
    33  N    2.262268   1.387631   1.370746   3.568180   2.503984
    34  N    6.006713   4.449636   6.610349   6.962076   7.996981
    35  N    7.158667   5.088576   7.358511   8.337371   8.691927
    36  C    7.784610   5.542014   7.732681   9.060057   8.982342
    37  H    8.462340   6.227555   8.385986   9.735590   9.613994
    38  H    8.461981   6.227157   8.385600   9.735241   9.613598
    39  H    7.127022   4.824843   6.920862   8.452209   8.112523
    40  C    3.647350   2.477656   2.490336   4.885353   3.106142
    41  H    4.084962   3.200350   2.844317   5.213067   3.152944
    42  H    4.084877   3.200629   2.844065   5.212906   3.152442
    43  H    4.298976   2.547430   3.359158   5.627203   4.157218
    44  Co   4.125344   1.950372   4.217973   5.402841   5.556006
                   26         27         28         29         30
    26  C    0.000000
    27  H    2.171707   0.000000
    28  C    1.388617   3.415530   0.000000
    29  H    3.426772   5.017304   2.181303   0.000000
    30  H    1.084466   2.485784   2.148735   4.320661   0.000000
    31  H    2.142895   4.305177   1.083596   2.498295   2.469661
    32  N    3.739684   2.892098   4.120481   4.387608   4.660517
    33  N    4.118915   4.415043   3.710747   2.831553   5.201743
    34  N    8.293911   6.850766   8.731929   8.600338   9.104752
    35  N    9.539187   8.461236   9.686644   9.051414  10.473622
    36  C   10.151346   9.327792  10.111853   9.176630  11.146553
    37  H   10.815755  10.003778  10.756844   9.776512  11.811485
    38  H   10.815390  10.003451  10.756459   9.776104  11.811126
    39  H    9.454643   8.829554   9.302610   8.230966  10.482233
    40  C    5.210007   5.795534   4.490031   2.903126   6.286015
    41  H    5.369931   6.167801   4.514986   2.752993   6.412336
    42  H    5.369607   6.167714   4.514520   2.752326   6.412003
    43  H    6.126305   6.439324   5.518634   3.996796   7.210315
    44  Co   6.498705   5.734933   6.555628   5.971277   7.485729
                   31         32         33         34         35
    31  H    0.000000
    32  N    5.201776   0.000000
    33  N    4.624809   2.228768   0.000000
    34  N    9.808545   4.620107   5.813901   0.000000
    35  N   10.714368   5.813901   6.240991   2.228765   0.000000
    36  C   11.085379   6.528206   6.478797   3.612911   1.427705
    37  H   11.718312   7.219104   7.124846   4.217002   2.094291
    38  H   11.717921   7.218759   7.124455   4.216889   2.094318
    39  H   10.240241   5.960589   5.615460   3.915393   2.061276
    40  C    5.206820   3.612913   1.427703   6.528206   6.478798
    41  H    5.109093   4.216884   2.094325   7.218699   7.124398
    42  H    5.108547   4.217015   2.094286   7.219166   7.124903
    43  H    6.279285   3.915391   2.061273   5.960587   5.615460
    44  Co   7.575849   2.880964   3.140594   2.880956   3.140583
                   36         37         38         39         40
    36  C    0.000000
    37  H    1.097707   0.000000
    38  H    1.097710   1.789258   0.000000
    39  H    1.094042   1.772276   1.772295   0.000000
    40  C    6.399061   6.982626   6.982196   5.401159   0.000000
    41  H    6.982146   7.642981   7.430113   5.968574   1.097712
    42  H    6.982674   7.431159   7.643065   5.969006   1.097707
    43  H    5.401159   5.968952   5.968630   4.371828   1.094041
    44  Co   3.661432   4.386184   4.385803   3.095594   3.661441
                   41         42         43         44
    41  H    0.000000
    42  H    1.789259   0.000000
    43  H    1.772297   1.772273   0.000000
    44  Co   4.385766   4.386241   3.095600   0.000000
 Symmetry turned off by external request.
 Stoichiometry    C22H17CoN4(3)
 Framework group  C1[X(C22H17CoN4)]
 Deg. of freedom   126
 Full point group                 C1      NOp   1
 Rotational constants (GHZ):           0.4625679           0.1003821           0.0825695
 General basis read from cards:  (5D, 7F)
 ======================================================================================================
                                       Pseudopotential Parameters
 ======================================================================================================
  Center     Atomic      Valence      Angular      Power
  Number     Number     Electrons     Momentum     of R      Exponent        Coefficient   SO-Coeffient
 ======================================================================================================
    1          6
                                   No pseudopotential on this center.
    2          6
                                   No pseudopotential on this center.
    3          6
                                   No pseudopotential on this center.
    4          6
                                   No pseudopotential on this center.
    5          6
                                   No pseudopotential on this center.
    6          6
                                   No pseudopotential on this center.
    7          1
                                   No pseudopotential on this center.
    8          1
                                   No pseudopotential on this center.
    9          1
                                   No pseudopotential on this center.
   10          6
                                   No pseudopotential on this center.
   11          6
                                   No pseudopotential on this center.
   12          6
                                   No pseudopotential on this center.
   13          6
                                   No pseudopotential on this center.
   14          6
                                   No pseudopotential on this center.
   15          6
                                   No pseudopotential on this center.
   16          1
                                   No pseudopotential on this center.
   17          6
                                   No pseudopotential on this center.
   18          1
                                   No pseudopotential on this center.
   19          1
                                   No pseudopotential on this center.
   20          1
                                   No pseudopotential on this center.
   21          6
                                   No pseudopotential on this center.
   22          6
                                   No pseudopotential on this center.
   23          6
                                   No pseudopotential on this center.
   24          6
                                   No pseudopotential on this center.
   25          6
                                   No pseudopotential on this center.
   26          6
                                   No pseudopotential on this center.
   27          1
                                   No pseudopotential on this center.
   28          6
                                   No pseudopotential on this center.
   29          1
                                   No pseudopotential on this center.
   30          1
                                   No pseudopotential on this center.
   31          1
                                   No pseudopotential on this center.
   32          7
                                   No pseudopotential on this center.
   33          7
                                   No pseudopotential on this center.
   34          7
                                   No pseudopotential on this center.
   35          7
                                   No pseudopotential on this center.
   36          6
                                   No pseudopotential on this center.
   37          1
                                   No pseudopotential on this center.
   38          1
                                   No pseudopotential on this center.
   39          1
                                   No pseudopotential on this center.
   40          6
                                   No pseudopotential on this center.
   41          1
                                   No pseudopotential on this center.
   42          1
                                   No pseudopotential on this center.
   43          1
                                   No pseudopotential on this center.
   44         27           17
                                      F and up 
                                                     2        1.0000000        0.00000000    0.00000000
                                      S - F
                                                     2       23.6600000      283.96056600    0.00000000
                                                     2       10.6100000       47.15684600    0.00000000
                                      P - F
                                                     2       25.0400000      182.21223600    0.00000000
                                                     2       10.4400000       35.23335200    0.00000000
                                      D - F
                                                     2       29.5400000      -26.47533300    0.00000000
                                                     2       10.1800000       -1.82578700    0.00000000
 ======================================================================================================
   441 basis functions,   871 primitive gaussians,   473 cartesian basis functions
    98 alpha electrons       96 beta electrons
       nuclear repulsion energy      2484.7094472029 Hartrees.
 NAtoms=   44 NActive=   44 NUniq=   44 SFac= 1.00D+00 NAtFMM=   60 NAOKFM=F Big=F
 Integral buffers will be    131072 words long.
 Raffenetti 2 integral format.
 Two-electron integral symmetry is turned off.
 Nuclear repulsion after empirical dispersion term =     2484.6503486390 Hartrees.
 One-electron integrals computed using PRISM.
   1 Symmetry operations used in ECPInt.
 ECPInt:  NShTT=   11781 NPrTT=   71406 LenC2=    9520 LenP2D=   32025.
 LDataN:  DoStor=T MaxTD1= 6 Len=  172
 NBasis=   441 RedAO= T EigKep=  3.16D-04  NBF=   441
 NBsUse=   441 1.00D-06 EigRej= -1.00D+00 NBFU=   441
 Initial guess from the checkpoint file:  "b.chk"
 B after Tr=    -0.000001   -0.000817   -0.000004
         Rot=    1.000000   -0.000001   -0.000000   -0.000000 Ang=  -0.00 deg.
 Initial guess <Sx>= 0.0000 <Sy>= 0.0000 <Sz>= 1.0000 <S**2>= 2.3522 S= 1.1131
 Requested convergence on RMS density matrix=1.00D-08 within  64 cycles.
 Requested convergence on MAX density matrix=1.00D-06.
 Requested convergence on             energy=1.00D-06.
 No special actions if energy rises.
 EnCoef did     4 forward-backward iterations
 Restarting incremental Fock formation.
 SCF Done:  E(UPBE1PBE) =  -1212.11094852     A.U. after   32 cycles
            NFock= 32  Conv=0.20D-08     -V/T= 2.0551
 <Sx>= 0.0000 <Sy>= 0.0000 <Sz>= 1.0000 <S**2>= 2.3320 S= 1.1069
 <L.S>=  0.00000000000    
 Annihilation of the first spin contaminant:
 S**2 before annihilation     2.3320,   after     2.0083
 QCSCF skips out because SCF is already converged.

 **********************************************************************

            Population analysis using the SCF Density.

 **********************************************************************

 Alpha  occ. eigenvalues --  -14.45252 -14.45252 -14.45062 -14.45062 -10.27981
 Alpha  occ. eigenvalues --  -10.27981 -10.27413 -10.27413 -10.27285 -10.27285
 Alpha  occ. eigenvalues --  -10.27118 -10.27118 -10.26645 -10.26644 -10.23607
 Alpha  occ. eigenvalues --  -10.23606 -10.23525 -10.23525 -10.23039 -10.23039
 Alpha  occ. eigenvalues --  -10.22969 -10.22969 -10.22409 -10.22392 -10.22327
 Alpha  occ. eigenvalues --  -10.21039  -3.93348  -2.45277  -2.43607  -2.43163
 Alpha  occ. eigenvalues --   -1.05788  -1.05708  -0.97201  -0.96811  -0.88117
 Alpha  occ. eigenvalues --   -0.87681  -0.85750  -0.80513  -0.78874  -0.77721
 Alpha  occ. eigenvalues --   -0.77707  -0.75552  -0.74894  -0.73328  -0.72360
 Alpha  occ. eigenvalues --   -0.66810  -0.65362  -0.64370  -0.64169  -0.62722
 Alpha  occ. eigenvalues --   -0.61405  -0.58963  -0.57662  -0.56616  -0.54001
 Alpha  occ. eigenvalues --   -0.53132  -0.52350  -0.49765  -0.49681  -0.49135
 Alpha  occ. eigenvalues --   -0.48760  -0.48117  -0.47196  -0.46763  -0.45943
 Alpha  occ. eigenvalues --   -0.45714  -0.45314  -0.44931  -0.44790  -0.44207
 Alpha  occ. eigenvalues --   -0.42840  -0.41909  -0.41312  -0.39000  -0.38564
 Alpha  occ. eigenvalues --   -0.38421  -0.37642  -0.37378  -0.37142  -0.36969
 Alpha  occ. eigenvalues --   -0.36353  -0.35073  -0.34591  -0.34029  -0.32048
 Alpha  occ. eigenvalues --   -0.31188  -0.30355  -0.26881  -0.26648  -0.26432
 Alpha  occ. eigenvalues --   -0.26047  -0.26018  -0.24543  -0.24101  -0.22910
 Alpha  occ. eigenvalues --   -0.20852  -0.20700  -0.10098
 Alpha virt. eigenvalues --   -0.06302  -0.02904  -0.00238  -0.00033   0.00398
 Alpha virt. eigenvalues --    0.02237   0.02783   0.03544   0.03844   0.05589
 Alpha virt. eigenvalues --    0.06183   0.07665   0.07711   0.09695   0.10221
 Alpha virt. eigenvalues --    0.12580   0.12983   0.13892   0.13911   0.14908
 Alpha virt. eigenvalues --    0.15240   0.15339   0.15879   0.15986   0.16515
 Alpha virt. eigenvalues --    0.16938   0.17641   0.17884   0.17885   0.18238
 Alpha virt. eigenvalues --    0.19435   0.19841   0.19957   0.19966   0.21110
 Alpha virt. eigenvalues --    0.21845   0.22169   0.22898   0.23993   0.25363
 Alpha virt. eigenvalues --    0.25709   0.25723   0.26412   0.27691   0.27738
 Alpha virt. eigenvalues --    0.28070   0.28718   0.29980   0.30707   0.31280
 Alpha virt. eigenvalues --    0.32890   0.33163   0.33969   0.34716   0.36320
 Alpha virt. eigenvalues --    0.37436   0.37786   0.39355   0.39369   0.41409
 Alpha virt. eigenvalues --    0.42321   0.44156   0.44292   0.45987   0.46812
 Alpha virt. eigenvalues --    0.46988   0.49411   0.51302   0.51669   0.52053
 Alpha virt. eigenvalues --    0.53791   0.53994   0.56189   0.56206   0.56274
 Alpha virt. eigenvalues --    0.56953   0.57114   0.57978   0.58376   0.58649
 Alpha virt. eigenvalues --    0.58708   0.59497   0.60313   0.61483   0.61531
 Alpha virt. eigenvalues --    0.61651   0.63040   0.63166   0.63202   0.63526
 Alpha virt. eigenvalues --    0.63569   0.63723   0.63995   0.64470   0.65060
 Alpha virt. eigenvalues --    0.65584   0.66019   0.66021   0.66957   0.67342
 Alpha virt. eigenvalues --    0.68163   0.68477   0.69265   0.70948   0.71934
 Alpha virt. eigenvalues --    0.72470   0.73394   0.75017   0.75464   0.76313
 Alpha virt. eigenvalues --    0.77053   0.77904   0.79359   0.79690   0.81062
 Alpha virt. eigenvalues --    0.81595   0.82381   0.82970   0.83744   0.84307
 Alpha virt. eigenvalues --    0.84577   0.84984   0.86507   0.86596   0.86626
 Alpha virt. eigenvalues --    0.87587   0.87838   0.89467   0.89707   0.90542
 Alpha virt. eigenvalues --    0.91116   0.91496   0.91681   0.92965   0.93416
 Alpha virt. eigenvalues --    0.93557   0.94666   0.95095   0.95276   0.95824
 Alpha virt. eigenvalues --    0.97159   0.97589   0.97875   0.98412   0.98498
 Alpha virt. eigenvalues --    1.00149   1.00275   1.01310   1.02073   1.02584
 Alpha virt. eigenvalues --    1.02716   1.03918   1.06290   1.07166   1.07682
 Alpha virt. eigenvalues --    1.08626   1.09621   1.09649   1.10734   1.13620
 Alpha virt. eigenvalues --    1.15026   1.15534   1.16518   1.18337   1.18608
 Alpha virt. eigenvalues --    1.19314   1.19533   1.23603   1.23704   1.24199
 Alpha virt. eigenvalues --    1.24563   1.26008   1.26406   1.26806   1.28884
 Alpha virt. eigenvalues --    1.28918   1.29384   1.31390   1.33417   1.33754
 Alpha virt. eigenvalues --    1.36177   1.36305   1.36453   1.38532   1.39604
 Alpha virt. eigenvalues --    1.41416   1.42221   1.42469   1.42514   1.45135
 Alpha virt. eigenvalues --    1.45299   1.45689   1.45956   1.47596   1.48258
 Alpha virt. eigenvalues --    1.49443   1.50092   1.50272   1.50312   1.50380
 Alpha virt. eigenvalues --    1.50738   1.52329   1.52785   1.56664   1.56984
 Alpha virt. eigenvalues --    1.58288   1.61618   1.64409   1.64966   1.65814
 Alpha virt. eigenvalues --    1.70303   1.72305   1.72869   1.76792   1.77360
 Alpha virt. eigenvalues --    1.78364   1.79693   1.79695   1.82319   1.83035
 Alpha virt. eigenvalues --    1.84898   1.86571   1.86823   1.87398   1.87912
 Alpha virt. eigenvalues --    1.88415   1.89577   1.91436   1.91574   1.93487
 Alpha virt. eigenvalues --    1.95172   1.95195   1.96653   1.97077   1.97923
 Alpha virt. eigenvalues --    1.97981   1.98455   1.98543   1.99240   1.99824
 Alpha virt. eigenvalues --    2.00312   2.01227   2.02605   2.03637   2.06300
 Alpha virt. eigenvalues --    2.06571   2.07277   2.08929   2.10266   2.12432
 Alpha virt. eigenvalues --    2.12996   2.14251   2.15382   2.15425   2.16258
 Alpha virt. eigenvalues --    2.16476   2.16798   2.19232   2.19748   2.20543
 Alpha virt. eigenvalues --    2.21355   2.21531   2.21683   2.23458   2.24356
 Alpha virt. eigenvalues --    2.24784   2.26054   2.27355   2.27727   2.27901
 Alpha virt. eigenvalues --    2.27971   2.28156   2.28349   2.28983   2.32850
 Alpha virt. eigenvalues --    2.34221   2.38660   2.39272   2.40478   2.40535
 Alpha virt. eigenvalues --    2.42572   2.44045   2.44464   2.45314   2.46823
 Alpha virt. eigenvalues --    2.51375   2.51669   2.57396   2.58747   2.58756
 Alpha virt. eigenvalues --    2.59308   2.60063   2.60682   2.61881   2.64112
 Alpha virt. eigenvalues --    2.65049   2.66659   2.67353   2.68756   2.69277
 Alpha virt. eigenvalues --    2.69591   2.70596   2.72602   2.75027   2.75150
 Alpha virt. eigenvalues --    2.75150   2.76369   2.77953   2.78839   2.80063
 Alpha virt. eigenvalues --    2.82899   2.85187   2.87739   2.88540   2.92433
 Alpha virt. eigenvalues --    2.93448   2.96617   2.98651   2.99749   3.00570
 Alpha virt. eigenvalues --    3.06057   3.06740   3.14932   3.18751   3.19402
 Alpha virt. eigenvalues --    3.29625   3.39420   3.46114   3.47313   3.52136
 Alpha virt. eigenvalues --    3.52611   3.55911   5.55420   5.56823   5.57276
 Alpha virt. eigenvalues --    5.59749   5.61149   5.61215   5.62814  45.70482
 Alpha virt. eigenvalues --   45.84581  45.91717  63.01206
  Beta  occ. eigenvalues --  -14.45123 -14.45123 -14.45036 -14.45036 -10.27758
  Beta  occ. eigenvalues --  -10.27757 -10.27415 -10.27415 -10.27295 -10.27294
  Beta  occ. eigenvalues --  -10.27155 -10.27155 -10.26534 -10.26533 -10.23547
  Beta  occ. eigenvalues --  -10.23547 -10.23503 -10.23503 -10.23045 -10.23045
  Beta  occ. eigenvalues --  -10.22937 -10.22937 -10.22492 -10.22487 -10.22232
  Beta  occ. eigenvalues --  -10.21648  -3.85497  -2.36672  -2.36237  -2.33841
  Beta  occ. eigenvalues --   -1.05588  -1.05502  -0.97039  -0.96609  -0.88128
  Beta  occ. eigenvalues --   -0.87610  -0.85866  -0.80458  -0.78857  -0.77661
  Beta  occ. eigenvalues --   -0.77654  -0.75424  -0.74694  -0.73338  -0.72622
  Beta  occ. eigenvalues --   -0.66849  -0.65302  -0.64141  -0.64122  -0.62723
  Beta  occ. eigenvalues --   -0.61310  -0.58960  -0.57770  -0.56615  -0.53983
  Beta  occ. eigenvalues --   -0.53118  -0.52336  -0.49304  -0.49233  -0.49104
  Beta  occ. eigenvalues --   -0.48788  -0.48298  -0.47173  -0.46731  -0.45913
  Beta  occ. eigenvalues --   -0.45724  -0.45284  -0.44800  -0.44586  -0.43898
  Beta  occ. eigenvalues --   -0.42884  -0.41885  -0.41324  -0.38744  -0.38613
  Beta  occ. eigenvalues --   -0.38554  -0.37364  -0.37244  -0.36570  -0.36526
  Beta  occ. eigenvalues --   -0.35764  -0.35156  -0.34049  -0.33377  -0.31723
  Beta  occ. eigenvalues --   -0.29743  -0.27175  -0.26554  -0.25933  -0.24817
  Beta  occ. eigenvalues --   -0.23804  -0.23144  -0.21964  -0.20720  -0.19696
  Beta  occ. eigenvalues --   -0.19543
  Beta virt. eigenvalues --   -0.04420  -0.03896  -0.00683  -0.00249  -0.00072
  Beta virt. eigenvalues --    0.01352   0.01787   0.02430   0.03537   0.05387
  Beta virt. eigenvalues --    0.05692   0.05979   0.07924   0.08800   0.09303
  Beta virt. eigenvalues --    0.10242   0.10719   0.12672   0.13078   0.14036
  Beta virt. eigenvalues --    0.14215   0.15305   0.15378   0.16020   0.16037
  Beta virt. eigenvalues --    0.16661   0.16696   0.16986   0.17728   0.18020
  Beta virt. eigenvalues --    0.18502   0.18861   0.19579   0.19922   0.20220
  Beta virt. eigenvalues --    0.21686   0.21969   0.22341   0.22754   0.22873
  Beta virt. eigenvalues --    0.24050   0.25763   0.25826   0.26369   0.27019
  Beta virt. eigenvalues --    0.27761   0.28186   0.29087   0.29191   0.30358
  Beta virt. eigenvalues --    0.31014   0.31382   0.33018   0.33126   0.34357
  Beta virt. eigenvalues --    0.34761   0.36434   0.37690   0.38076   0.39446
  Beta virt. eigenvalues --    0.39529   0.41418   0.42711   0.44457   0.44657
  Beta virt. eigenvalues --    0.46072   0.47189   0.47473   0.49694   0.51385
  Beta virt. eigenvalues --    0.51814   0.52061   0.53889   0.54129   0.56227
  Beta virt. eigenvalues --    0.56246   0.56466   0.57007   0.57176   0.58155
  Beta virt. eigenvalues --    0.58508   0.58690   0.58982   0.59552   0.60376
  Beta virt. eigenvalues --    0.61627   0.61690   0.61704   0.63093   0.63126
  Beta virt. eigenvalues --    0.63337   0.63610   0.63708   0.63768   0.64031
  Beta virt. eigenvalues --    0.64433   0.65058   0.65608   0.66083   0.66237
  Beta virt. eigenvalues --    0.67377   0.67633   0.68193   0.68702   0.69091
  Beta virt. eigenvalues --    0.70958   0.72178   0.72245   0.73699   0.75254
  Beta virt. eigenvalues --    0.75467   0.76440   0.77153   0.78339   0.79500
  Beta virt. eigenvalues --    0.80308   0.81257   0.81814   0.82603   0.83011
  Beta virt. eigenvalues --    0.84146   0.84398   0.84634   0.85247   0.86594
  Beta virt. eigenvalues --    0.86718   0.87083   0.87600   0.87843   0.89716
  Beta virt. eigenvalues --    0.89725   0.90599   0.91275   0.91586   0.91815
  Beta virt. eigenvalues --    0.92991   0.93421   0.93608   0.95303   0.95389
  Beta virt. eigenvalues --    0.96196   0.96369   0.97161   0.97912   0.97977
  Beta virt. eigenvalues --    0.98474   0.98490   1.00152   1.00364   1.01346
  Beta virt. eigenvalues --    1.02126   1.02609   1.02747   1.03997   1.06388
  Beta virt. eigenvalues --    1.07198   1.08704   1.09165   1.09644   1.11082
  Beta virt. eigenvalues --    1.13681   1.15128   1.15587   1.16550   1.16766
  Beta virt. eigenvalues --    1.18358   1.18640   1.19348   1.19653   1.23683
  Beta virt. eigenvalues --    1.23842   1.24421   1.24620   1.26518   1.26546
  Beta virt. eigenvalues --    1.26909   1.29050   1.29101   1.29539   1.31352
  Beta virt. eigenvalues --    1.33782   1.34052   1.36431   1.36576   1.36604
  Beta virt. eigenvalues --    1.38675   1.39890   1.41660   1.42555   1.42583
  Beta virt. eigenvalues --    1.43031   1.45049   1.45400   1.45837   1.46145
  Beta virt. eigenvalues --    1.47801   1.48370   1.49631   1.50115   1.50388
  Beta virt. eigenvalues --    1.50414   1.50562   1.51001   1.52794   1.54032
  Beta virt. eigenvalues --    1.56872   1.56919   1.59135   1.61772   1.64430
  Beta virt. eigenvalues --    1.65767   1.66066   1.70351   1.72702   1.73010
  Beta virt. eigenvalues --    1.77031   1.77322   1.78660   1.79557   1.79891
  Beta virt. eigenvalues --    1.82402   1.83119   1.84973   1.86685   1.86934
  Beta virt. eigenvalues --    1.87424   1.87846   1.88237   1.89773   1.91452
  Beta virt. eigenvalues --    1.91635   1.93516   1.95214   1.95224   1.96686
  Beta virt. eigenvalues --    1.97137   1.98049   1.98075   1.98466   1.98501
  Beta virt. eigenvalues --    1.99388   2.00056   2.00359   2.01250   2.02644
  Beta virt. eigenvalues --    2.03698   2.06401   2.06766   2.07548   2.09101
  Beta virt. eigenvalues --    2.10182   2.12581   2.12947   2.14573   2.15442
  Beta virt. eigenvalues --    2.15454   2.16329   2.16607   2.16814   2.19337
  Beta virt. eigenvalues --    2.19994   2.20655   2.21428   2.21614   2.21801
  Beta virt. eigenvalues --    2.23713   2.24718   2.24940   2.26266   2.27594
  Beta virt. eigenvalues --    2.27859   2.27884   2.28100   2.28271   2.28525
  Beta virt. eigenvalues --    2.29174   2.32981   2.34611   2.38802   2.39580
  Beta virt. eigenvalues --    2.40608   2.40790   2.44400   2.44655   2.45623
  Beta virt. eigenvalues --    2.46868   2.48585   2.51459   2.51735   2.57591
  Beta virt. eigenvalues --    2.58798   2.59019   2.59188   2.60262   2.60979
  Beta virt. eigenvalues --    2.61965   2.64312   2.65266   2.66761   2.67767
  Beta virt. eigenvalues --    2.69285   2.69550   2.69666   2.72203   2.72972
  Beta virt. eigenvalues --    2.75255   2.75265   2.75299   2.77207   2.78290
  Beta virt. eigenvalues --    2.79200   2.80152   2.83146   2.85530   2.87976
  Beta virt. eigenvalues --    2.88695   2.93396   2.93452   2.96906   2.98562
  Beta virt. eigenvalues --    3.00253   3.00587   3.06225   3.06936   3.14970
  Beta virt. eigenvalues --    3.18995   3.19592   3.29395   3.39448   3.46742
  Beta virt. eigenvalues --    3.47324   3.52300   3.52489   3.58951   5.61623
  Beta virt. eigenvalues --    5.63641   5.63848   5.64042   5.65630   5.68274
  Beta virt. eigenvalues --    5.69581  45.81226  45.93368  45.99942  63.07946
          Condensed to atoms (all electrons):
               1          2          3          4          5          6
     1  C    5.207112   0.500042  -0.059735  -0.058553  -0.059735   0.500041
     2  C    0.500042   4.566073   0.526131  -0.015327  -0.040350  -0.018771
     3  C   -0.059735   0.526131   5.046510   0.527745  -0.029055  -0.040351
     4  C   -0.058553  -0.015327   0.527745   4.909510   0.527744  -0.015327
     5  C   -0.059735  -0.040350  -0.029055   0.527744   5.046509   0.526131
     6  C    0.500041  -0.018771  -0.040351  -0.015327   0.526131   4.566079
     7  H    0.006430  -0.039328   0.344606  -0.038964   0.003849   0.000787
     8  H    0.001442   0.002601  -0.035519   0.366665  -0.035519   0.002601
     9  H    0.006430   0.000787   0.003849  -0.038964   0.344606  -0.039329
    10  C    0.006006  -0.000028   0.000002   0.000117  -0.004979  -0.044903
    11  C    0.008315   0.001902  -0.000043   0.000044   0.002486  -0.063726
    12  C   -0.000702   0.000001  -0.000000   0.000001   0.000109   0.007457
    13  C    0.000183   0.000001  -0.000001   0.000058   0.001763  -0.004437
    14  C    0.000002  -0.000000   0.000000  -0.000000   0.000001  -0.000041
    15  C    0.000001  -0.000000   0.000000  -0.000001   0.000073   0.000068
    16  H   -0.000028   0.000000   0.000001   0.000105   0.000028   0.000858
    17  C   -0.000000   0.000000   0.000000   0.000000  -0.000000  -0.000000
    18  H   -0.000000   0.000000   0.000000   0.000000  -0.000000   0.000003
    19  H   -0.000000   0.000000  -0.000000   0.000000   0.000002  -0.000003
    20  H    0.000000  -0.000000   0.000000  -0.000000  -0.000000  -0.000000
    21  C    0.006006  -0.044903  -0.004979   0.000117   0.000002  -0.000028
    22  C    0.008316  -0.063727   0.002486   0.000044  -0.000043   0.001902
    23  C   -0.000702   0.007457   0.000109   0.000001  -0.000000   0.000001
    24  C    0.000183  -0.004437   0.001763   0.000058  -0.000001   0.000001
    25  C    0.000002  -0.000041   0.000001  -0.000000   0.000000  -0.000000
    26  C    0.000001   0.000068   0.000073  -0.000001   0.000000  -0.000000
    27  H   -0.000028   0.000858   0.000028   0.000105   0.000001   0.000000
    28  C   -0.000000  -0.000000  -0.000000   0.000000   0.000000   0.000000
    29  H   -0.000000   0.000003  -0.000000   0.000000   0.000000   0.000000
    30  H   -0.000000  -0.000003   0.000002   0.000000  -0.000000   0.000000
    31  H    0.000000  -0.000000  -0.000000  -0.000000   0.000000  -0.000000
    32  N   -0.040850   0.269793  -0.071161   0.004699   0.000015   0.006142
    33  N    0.001211   0.006056  -0.000163   0.000001   0.000000  -0.000033
    34  N   -0.040849   0.006142   0.000015   0.004699  -0.071160   0.269792
    35  N    0.001211  -0.000033   0.000000   0.000001  -0.000163   0.006056
    36  C   -0.000007   0.000000   0.000000  -0.000000   0.000002  -0.000049
    37  H   -0.000000  -0.000000   0.000000   0.000000  -0.000000   0.000004
    38  H   -0.000000  -0.000000   0.000000   0.000000  -0.000000   0.000004
    39  H   -0.000019   0.000001   0.000000  -0.000000   0.000000  -0.000009
    40  C   -0.000007  -0.000049   0.000002  -0.000000   0.000000   0.000000
    41  H   -0.000000   0.000004  -0.000000   0.000000   0.000000  -0.000000
    42  H   -0.000000   0.000004  -0.000000   0.000000   0.000000  -0.000000
    43  H   -0.000019  -0.000009   0.000000  -0.000000   0.000000   0.000001
    44  Co   0.250896  -0.059574   0.004024   0.003686   0.004024  -0.059575
               7          8          9         10         11         12
     1  C    0.006430   0.001442   0.006430   0.006006   0.008315  -0.000702
     2  C   -0.039328   0.002601   0.000787  -0.000028   0.001902   0.000001
     3  C    0.344606  -0.035519   0.003849   0.000002  -0.000043  -0.000000
     4  C   -0.038964   0.366665  -0.038964   0.000117   0.000044   0.000001
     5  C    0.003849  -0.035519   0.344606  -0.004979   0.002486   0.000109
     6  C    0.000787   0.002601  -0.039329  -0.044903  -0.063726   0.007457
     7  H    0.556969  -0.004175  -0.000096  -0.000000  -0.000000   0.000000
     8  H   -0.004175   0.542108  -0.004175  -0.000002   0.000001  -0.000000
     9  H   -0.000096  -0.004175   0.556969   0.000428  -0.000166  -0.000042
    10  C   -0.000000  -0.000002   0.000428   4.635885  -0.067794   0.513752
    11  C   -0.000000   0.000001  -0.000166  -0.067794   4.816553  -0.056741
    12  C    0.000000  -0.000000  -0.000042   0.513752  -0.056741   4.648025
    13  C   -0.000000   0.000002  -0.000033   0.543708   0.004739  -0.056253
    14  C   -0.000000   0.000000   0.000000  -0.048853   0.005627   0.534573
    15  C   -0.000000   0.000000   0.000109  -0.005750  -0.000071  -0.038017
    16  H    0.000000  -0.000010   0.006304  -0.034395  -0.000159   0.003742
    17  C    0.000000  -0.000000   0.000002  -0.039834  -0.000079  -0.008025
    18  H    0.000000  -0.000000  -0.000000   0.004048  -0.000214  -0.038179
    19  H    0.000000   0.000000  -0.000009   0.001907   0.000003   0.000945
    20  H   -0.000000  -0.000000   0.000000   0.000925   0.000003   0.002359
    21  C    0.000428  -0.000002  -0.000000  -0.000000  -0.000006   0.000000
    22  C   -0.000166   0.000001  -0.000000  -0.000006  -0.012358  -0.000002
    23  C   -0.000042  -0.000000   0.000000   0.000000  -0.000002  -0.000000
    24  C   -0.000033   0.000002  -0.000000   0.000000   0.000000   0.000000
    25  C    0.000000   0.000000  -0.000000  -0.000000   0.000000   0.000000
    26  C    0.000109   0.000000  -0.000000  -0.000000  -0.000000  -0.000000
    27  H    0.006304  -0.000010   0.000000   0.000000   0.000000  -0.000000
    28  C    0.000002  -0.000000   0.000000   0.000000  -0.000000  -0.000000
    29  H   -0.000000  -0.000000   0.000000   0.000000   0.000000  -0.000000
    30  H   -0.000009   0.000000   0.000000   0.000000   0.000000   0.000000
    31  H    0.000000  -0.000000  -0.000000   0.000000   0.000000   0.000000
    32  N   -0.004050  -0.000096   0.000007   0.000000   0.000219   0.000000
    33  N    0.000002  -0.000000  -0.000000   0.000000   0.000018   0.000000
    34  N    0.000007  -0.000096  -0.004050   0.256697   0.340713  -0.038622
    35  N   -0.000000  -0.000000   0.000002  -0.046448   0.306417   0.273205
    36  C   -0.000000   0.000000  -0.000000   0.005706  -0.043649  -0.047560
    37  H    0.000000  -0.000000   0.000000  -0.000138   0.000738  -0.001135
    38  H    0.000000  -0.000000   0.000000  -0.000138   0.000733  -0.001132
    39  H    0.000000   0.000000   0.000000   0.000020  -0.000401   0.002580
    40  C   -0.000000   0.000000  -0.000000   0.000000   0.000014   0.000000
    41  H    0.000000  -0.000000   0.000000  -0.000000  -0.000000  -0.000000
    42  H    0.000000  -0.000000   0.000000  -0.000000  -0.000000  -0.000000
    43  H    0.000000   0.000000   0.000000  -0.000000  -0.000001  -0.000000
    44  Co  -0.000723   0.000121  -0.000723   0.008155   0.388758   0.004694
              13         14         15         16         17         18
     1  C    0.000183   0.000002   0.000001  -0.000028  -0.000000  -0.000000
     2  C    0.000001  -0.000000  -0.000000   0.000000   0.000000   0.000000
     3  C   -0.000001   0.000000   0.000000   0.000001   0.000000   0.000000
     4  C    0.000058  -0.000000  -0.000001   0.000105   0.000000   0.000000
     5  C    0.001763   0.000001   0.000073   0.000028  -0.000000  -0.000000
     6  C   -0.004437  -0.000041   0.000068   0.000858  -0.000000   0.000003
     7  H   -0.000000  -0.000000  -0.000000   0.000000   0.000000   0.000000
     8  H    0.000002   0.000000   0.000000  -0.000010  -0.000000  -0.000000
     9  H   -0.000033   0.000000   0.000109   0.006304   0.000002  -0.000000
    10  C    0.543708  -0.048853  -0.005750  -0.034395  -0.039834   0.004048
    11  C    0.004739   0.005627  -0.000071  -0.000159  -0.000079  -0.000214
    12  C   -0.056253   0.534573  -0.038017   0.003742  -0.008025  -0.038179
    13  C    5.026933  -0.044419   0.506009   0.355048  -0.036663   0.000291
    14  C   -0.044419   5.036797  -0.037504   0.000450   0.515204   0.362090
    15  C    0.506009  -0.037504   4.900336  -0.035357   0.559601   0.003819
    16  H    0.355048   0.000450  -0.035357   0.517746   0.003668   0.000014
    17  C   -0.036663   0.515204   0.559601   0.003668   4.887525  -0.035255
    18  H    0.000291   0.362090   0.003819   0.000014  -0.035255   0.536782
    19  H   -0.035900   0.003902   0.368986  -0.003937  -0.035719  -0.000142
    20  H    0.004070  -0.037319  -0.036576  -0.000149   0.368438  -0.004249
    21  C    0.000000  -0.000000  -0.000000   0.000000   0.000000   0.000000
    22  C    0.000000   0.000000  -0.000000   0.000000  -0.000000   0.000000
    23  C    0.000000   0.000000  -0.000000  -0.000000  -0.000000  -0.000000
    24  C    0.000000  -0.000000  -0.000000   0.000000   0.000000   0.000000
    25  C   -0.000000  -0.000000   0.000000  -0.000000  -0.000000   0.000000
    26  C   -0.000000   0.000000  -0.000000  -0.000000   0.000000   0.000000
    27  H    0.000000  -0.000000  -0.000000   0.000000   0.000000  -0.000000
    28  C    0.000000  -0.000000   0.000000   0.000000   0.000000   0.000000
    29  H    0.000000   0.000000   0.000000  -0.000000   0.000000  -0.000000
    30  H   -0.000000  -0.000000   0.000000  -0.000000   0.000000   0.000000
    31  H   -0.000000   0.000000   0.000000  -0.000000   0.000000   0.000000
    32  N   -0.000000  -0.000000   0.000000   0.000000   0.000000  -0.000000
    33  N   -0.000000  -0.000000   0.000000   0.000000   0.000000  -0.000000
    34  N   -0.078565   0.009218   0.005253  -0.005168  -0.000166  -0.000098
    35  N    0.009306  -0.084644  -0.000142  -0.000097   0.005485  -0.007451
    36  C   -0.000115  -0.003075   0.000009   0.000003  -0.000111   0.004294
    37  H   -0.000008   0.002682  -0.000002  -0.000000  -0.000007   0.000509
    38  H   -0.000008   0.002680  -0.000002  -0.000000  -0.000007   0.000507
    39  H    0.000006   0.000014  -0.000000  -0.000000   0.000001  -0.000032
    40  C    0.000000   0.000000  -0.000000   0.000000   0.000000  -0.000000
    41  H    0.000000   0.000000  -0.000000   0.000000  -0.000000  -0.000000
    42  H    0.000000   0.000000  -0.000000   0.000000  -0.000000  -0.000000
    43  H   -0.000000   0.000000  -0.000000   0.000000  -0.000000   0.000000
    44  Co  -0.000478  -0.000475  -0.000022   0.000057   0.000012   0.000026
              19         20         21         22         23         24
     1  C   -0.000000   0.000000   0.006006   0.008316  -0.000702   0.000183
     2  C    0.000000  -0.000000  -0.044903  -0.063727   0.007457  -0.004437
     3  C   -0.000000   0.000000  -0.004979   0.002486   0.000109   0.001763
     4  C    0.000000  -0.000000   0.000117   0.000044   0.000001   0.000058
     5  C    0.000002  -0.000000   0.000002  -0.000043  -0.000000  -0.000001
     6  C   -0.000003  -0.000000  -0.000028   0.001902   0.000001   0.000001
     7  H    0.000000  -0.000000   0.000428  -0.000166  -0.000042  -0.000033
     8  H    0.000000  -0.000000  -0.000002   0.000001  -0.000000   0.000002
     9  H   -0.000009   0.000000  -0.000000  -0.000000   0.000000  -0.000000
    10  C    0.001907   0.000925  -0.000000  -0.000006   0.000000   0.000000
    11  C    0.000003   0.000003  -0.000006  -0.012358  -0.000002   0.000000
    12  C    0.000945   0.002359   0.000000  -0.000002  -0.000000   0.000000
    13  C   -0.035900   0.004070   0.000000   0.000000   0.000000   0.000000
    14  C    0.003902  -0.037319  -0.000000   0.000000   0.000000  -0.000000
    15  C    0.368986  -0.036576  -0.000000  -0.000000  -0.000000  -0.000000
    16  H   -0.003937  -0.000149   0.000000   0.000000  -0.000000   0.000000
    17  C   -0.035719   0.368438   0.000000  -0.000000  -0.000000   0.000000
    18  H   -0.000142  -0.004249   0.000000   0.000000  -0.000000   0.000000
    19  H    0.533636  -0.004608   0.000000   0.000000   0.000000  -0.000000
    20  H   -0.004608   0.538832   0.000000   0.000000   0.000000  -0.000000
    21  C    0.000000   0.000000   4.635875  -0.067792   0.513748   0.543711
    22  C    0.000000   0.000000  -0.067792   4.816561  -0.056741   0.004739
    23  C    0.000000   0.000000   0.513748  -0.056741   4.648026  -0.056253
    24  C   -0.000000  -0.000000   0.543711   0.004739  -0.056253   5.026939
    25  C   -0.000000   0.000000  -0.048852   0.005627   0.534573  -0.044420
    26  C    0.000000   0.000000  -0.005749  -0.000071  -0.038017   0.506007
    27  H   -0.000000  -0.000000  -0.034394  -0.000159   0.003742   0.355047
    28  C    0.000000   0.000000  -0.039834  -0.000079  -0.008025  -0.036663
    29  H    0.000000   0.000000   0.004048  -0.000214  -0.038180   0.000291
    30  H    0.000000   0.000000   0.001907   0.000003   0.000945  -0.035899
    31  H    0.000000   0.000000   0.000925   0.000003   0.002359   0.004070
    32  N    0.000000   0.000000   0.256695   0.340709  -0.038621  -0.078566
    33  N   -0.000000  -0.000000  -0.046448   0.306412   0.273206   0.009306
    34  N   -0.000093   0.000003   0.000000   0.000219   0.000000  -0.000000
    35  N    0.000004  -0.000103   0.000000   0.000018   0.000000  -0.000000
    36  C   -0.000000  -0.000002   0.000000   0.000014   0.000000   0.000000
    37  H   -0.000000  -0.000000  -0.000000  -0.000000  -0.000000   0.000000
    38  H   -0.000000  -0.000000  -0.000000  -0.000000  -0.000000   0.000000
    39  H   -0.000000  -0.000000  -0.000000  -0.000001  -0.000000  -0.000000
    40  C    0.000000  -0.000000   0.005706  -0.043649  -0.047560  -0.000115
    41  H   -0.000000   0.000000  -0.000138   0.000733  -0.001132  -0.000008
    42  H   -0.000000   0.000000  -0.000138   0.000739  -0.001136  -0.000008
    43  H    0.000000   0.000000   0.000020  -0.000401   0.002580   0.000006
    44  Co   0.000014  -0.000005   0.008154   0.388759   0.004694  -0.000477
              25         26         27         28         29         30
     1  C    0.000002   0.000001  -0.000028  -0.000000  -0.000000  -0.000000
     2  C   -0.000041   0.000068   0.000858  -0.000000   0.000003  -0.000003
     3  C    0.000001   0.000073   0.000028  -0.000000  -0.000000   0.000002
     4  C   -0.000000  -0.000001   0.000105   0.000000   0.000000   0.000000
     5  C    0.000000   0.000000   0.000001   0.000000   0.000000  -0.000000
     6  C   -0.000000  -0.000000   0.000000   0.000000   0.000000   0.000000
     7  H    0.000000   0.000109   0.006304   0.000002  -0.000000  -0.000009
     8  H    0.000000   0.000000  -0.000010  -0.000000  -0.000000   0.000000
     9  H   -0.000000  -0.000000   0.000000   0.000000   0.000000   0.000000
    10  C   -0.000000  -0.000000   0.000000   0.000000   0.000000   0.000000
    11  C    0.000000  -0.000000   0.000000  -0.000000   0.000000   0.000000
    12  C    0.000000  -0.000000  -0.000000  -0.000000  -0.000000   0.000000
    13  C   -0.000000  -0.000000   0.000000   0.000000   0.000000  -0.000000
    14  C   -0.000000   0.000000  -0.000000  -0.000000   0.000000  -0.000000
    15  C    0.000000  -0.000000  -0.000000   0.000000   0.000000   0.000000
    16  H   -0.000000  -0.000000   0.000000   0.000000  -0.000000  -0.000000
    17  C   -0.000000   0.000000   0.000000   0.000000   0.000000   0.000000
    18  H    0.000000   0.000000  -0.000000   0.000000  -0.000000   0.000000
    19  H   -0.000000   0.000000  -0.000000   0.000000   0.000000   0.000000
    20  H    0.000000   0.000000  -0.000000   0.000000   0.000000   0.000000
    21  C   -0.048852  -0.005749  -0.034394  -0.039834   0.004048   0.001907
    22  C    0.005627  -0.000071  -0.000159  -0.000079  -0.000214   0.000003
    23  C    0.534573  -0.038017   0.003742  -0.008025  -0.038180   0.000945
    24  C   -0.044420   0.506007   0.355047  -0.036663   0.000291  -0.035899
    25  C    5.036799  -0.037504   0.000450   0.515205   0.362089   0.003902
    26  C   -0.037504   4.900340  -0.035357   0.559599   0.003819   0.368986
    27  H    0.000450  -0.035357   0.517750   0.003668   0.000014  -0.003937
    28  C    0.515205   0.559599   0.003668   4.887527  -0.035256  -0.035719
    29  H    0.362089   0.003819   0.000014  -0.035256   0.536785  -0.000142
    30  H    0.003902   0.368986  -0.003937  -0.035719  -0.000142   0.533635
    31  H   -0.037319  -0.036576  -0.000149   0.368438  -0.004249  -0.004608
    32  N    0.009218   0.005253  -0.005168  -0.000166  -0.000098  -0.000093
    33  N   -0.084645  -0.000142  -0.000097   0.005485  -0.007451   0.000004
    34  N   -0.000000   0.000000   0.000000   0.000000  -0.000000   0.000000
    35  N   -0.000000   0.000000   0.000000   0.000000  -0.000000  -0.000000
    36  C    0.000000  -0.000000   0.000000   0.000000  -0.000000   0.000000
    37  H    0.000000  -0.000000   0.000000  -0.000000  -0.000000  -0.000000
    38  H    0.000000  -0.000000   0.000000  -0.000000  -0.000000  -0.000000
    39  H    0.000000  -0.000000   0.000000  -0.000000   0.000000   0.000000
    40  C   -0.003075   0.000009   0.000003  -0.000111   0.004294  -0.000000
    41  H    0.002680  -0.000002  -0.000000  -0.000007   0.000507  -0.000000
    42  H    0.002683  -0.000002  -0.000000  -0.000007   0.000509  -0.000000
    43  H    0.000014  -0.000000  -0.000000   0.000001  -0.000032  -0.000000
    44  Co  -0.000475  -0.000022   0.000057   0.000012   0.000026   0.000014
              31         32         33         34         35         36
     1  C    0.000000  -0.040850   0.001211  -0.040849   0.001211  -0.000007
     2  C   -0.000000   0.269793   0.006056   0.006142  -0.000033   0.000000
     3  C   -0.000000  -0.071161  -0.000163   0.000015   0.000000   0.000000
     4  C   -0.000000   0.004699   0.000001   0.004699   0.000001  -0.000000
     5  C    0.000000   0.000015   0.000000  -0.071160  -0.000163   0.000002
     6  C   -0.000000   0.006142  -0.000033   0.269792   0.006056  -0.000049
     7  H    0.000000  -0.004050   0.000002   0.000007  -0.000000  -0.000000
     8  H   -0.000000  -0.000096  -0.000000  -0.000096  -0.000000   0.000000
     9  H   -0.000000   0.000007  -0.000000  -0.004050   0.000002  -0.000000
    10  C    0.000000   0.000000   0.000000   0.256697  -0.046448   0.005706
    11  C    0.000000   0.000219   0.000018   0.340713   0.306417  -0.043649
    12  C    0.000000   0.000000   0.000000  -0.038622   0.273205  -0.047560
    13  C   -0.000000  -0.000000  -0.000000  -0.078565   0.009306  -0.000115
    14  C    0.000000  -0.000000  -0.000000   0.009218  -0.084644  -0.003075
    15  C    0.000000   0.000000   0.000000   0.005253  -0.000142   0.000009
    16  H   -0.000000   0.000000   0.000000  -0.005168  -0.000097   0.000003
    17  C    0.000000   0.000000   0.000000  -0.000166   0.005485  -0.000111
    18  H    0.000000  -0.000000  -0.000000  -0.000098  -0.007451   0.004294
    19  H    0.000000   0.000000  -0.000000  -0.000093   0.000004  -0.000000
    20  H    0.000000   0.000000  -0.000000   0.000003  -0.000103  -0.000002
    21  C    0.000925   0.256695  -0.046448   0.000000   0.000000   0.000000
    22  C    0.000003   0.340709   0.306412   0.000219   0.000018   0.000014
    23  C    0.002359  -0.038621   0.273206   0.000000   0.000000   0.000000
    24  C    0.004070  -0.078566   0.009306  -0.000000  -0.000000   0.000000
    25  C   -0.037319   0.009218  -0.084645  -0.000000  -0.000000   0.000000
    26  C   -0.036576   0.005253  -0.000142   0.000000   0.000000  -0.000000
    27  H   -0.000149  -0.005168  -0.000097   0.000000   0.000000   0.000000
    28  C    0.368438  -0.000166   0.005485   0.000000   0.000000   0.000000
    29  H   -0.004249  -0.000098  -0.007451  -0.000000  -0.000000  -0.000000
    30  H   -0.004608  -0.000093   0.000004   0.000000  -0.000000   0.000000
    31  H    0.538832   0.000003  -0.000103   0.000000  -0.000000  -0.000000
    32  N    0.000003   7.207568  -0.056212  -0.000052   0.000000  -0.000000
    33  N   -0.000103  -0.056212   7.050739   0.000000  -0.000000  -0.000000
    34  N    0.000000  -0.000052   0.000000   7.207555  -0.056212   0.004523
    35  N   -0.000000   0.000000  -0.000000  -0.056212   7.050734   0.300913
    36  C   -0.000000  -0.000000  -0.000000   0.004523   0.300913   5.052459
    37  H    0.000000   0.000000   0.000000  -0.000070  -0.042127   0.377385
    38  H    0.000000   0.000000   0.000000  -0.000070  -0.042132   0.377391
    39  H    0.000000  -0.000000   0.000000   0.000156  -0.032306   0.376671
    40  C   -0.000002   0.004523   0.300914  -0.000000  -0.000000   0.000000
    41  H   -0.000000  -0.000070  -0.042132   0.000000   0.000000  -0.000000
    42  H   -0.000000  -0.000070  -0.042127   0.000000   0.000000  -0.000000
    43  H   -0.000000   0.000156  -0.032307  -0.000000   0.000000  -0.000001
    44  Co  -0.000005  -0.077563  -0.054800  -0.077563  -0.054800  -0.004043
              37         38         39         40         41         42
     1  C   -0.000000  -0.000000  -0.000019  -0.000007  -0.000000  -0.000000
     2  C   -0.000000  -0.000000   0.000001  -0.000049   0.000004   0.000004
     3  C    0.000000   0.000000   0.000000   0.000002  -0.000000  -0.000000
     4  C    0.000000   0.000000  -0.000000  -0.000000   0.000000   0.000000
     5  C   -0.000000  -0.000000   0.000000   0.000000   0.000000   0.000000
     6  C    0.000004   0.000004  -0.000009   0.000000  -0.000000  -0.000000
     7  H    0.000000   0.000000   0.000000  -0.000000   0.000000   0.000000
     8  H   -0.000000  -0.000000   0.000000   0.000000  -0.000000  -0.000000
     9  H    0.000000   0.000000   0.000000  -0.000000   0.000000   0.000000
    10  C   -0.000138  -0.000138   0.000020   0.000000  -0.000000  -0.000000
    11  C    0.000738   0.000733  -0.000401   0.000014  -0.000000  -0.000000
    12  C   -0.001135  -0.001132   0.002580   0.000000  -0.000000  -0.000000
    13  C   -0.000008  -0.000008   0.000006   0.000000   0.000000   0.000000
    14  C    0.002682   0.002680   0.000014   0.000000   0.000000   0.000000
    15  C   -0.000002  -0.000002  -0.000000  -0.000000  -0.000000  -0.000000
    16  H   -0.000000  -0.000000  -0.000000   0.000000   0.000000   0.000000
    17  C   -0.000007  -0.000007   0.000001   0.000000  -0.000000  -0.000000
    18  H    0.000509   0.000507  -0.000032  -0.000000  -0.000000  -0.000000
    19  H   -0.000000  -0.000000  -0.000000   0.000000  -0.000000  -0.000000
    20  H   -0.000000  -0.000000  -0.000000  -0.000000   0.000000   0.000000
    21  C   -0.000000  -0.000000  -0.000000   0.005706  -0.000138  -0.000138
    22  C   -0.000000  -0.000000  -0.000001  -0.043649   0.000733   0.000739
    23  C   -0.000000  -0.000000  -0.000000  -0.047560  -0.001132  -0.001136
    24  C    0.000000   0.000000  -0.000000  -0.000115  -0.000008  -0.000008
    25  C    0.000000   0.000000   0.000000  -0.003075   0.002680   0.002683
    26  C   -0.000000  -0.000000  -0.000000   0.000009  -0.000002  -0.000002
    27  H    0.000000   0.000000   0.000000   0.000003  -0.000000  -0.000000
    28  C   -0.000000  -0.000000  -0.000000  -0.000111  -0.000007  -0.000007
    29  H   -0.000000  -0.000000   0.000000   0.004294   0.000507   0.000509
    30  H   -0.000000  -0.000000   0.000000  -0.000000  -0.000000  -0.000000
    31  H    0.000000   0.000000   0.000000  -0.000002  -0.000000  -0.000000
    32  N    0.000000   0.000000  -0.000000   0.004523  -0.000070  -0.000070
    33  N    0.000000   0.000000   0.000000   0.300914  -0.042132  -0.042127
    34  N   -0.000070  -0.000070   0.000156  -0.000000   0.000000   0.000000
    35  N   -0.042127  -0.042132  -0.032306  -0.000000   0.000000   0.000000
    36  C    0.377385   0.377391   0.376671   0.000000  -0.000000  -0.000000
    37  H    0.524807  -0.039971  -0.025696  -0.000000  -0.000000   0.000000
    38  H   -0.039971   0.524809  -0.025705  -0.000000   0.000000  -0.000000
    39  H   -0.025696  -0.025705   0.478941  -0.000001   0.000000   0.000000
    40  C   -0.000000  -0.000000  -0.000001   5.052458   0.377390   0.377385
    41  H   -0.000000   0.000000   0.000000   0.377390   0.524811  -0.039971
    42  H    0.000000  -0.000000   0.000000   0.377385  -0.039971   0.524809
    43  H    0.000000   0.000000  -0.000022   0.376671  -0.025706  -0.025695
    44  Co   0.001073   0.001076   0.007951  -0.004043   0.001077   0.001072
              43         44
     1  C   -0.000019   0.250896
     2  C   -0.000009  -0.059574
     3  C    0.000000   0.004024
     4  C   -0.000000   0.003686
     5  C    0.000000   0.004024
     6  C    0.000001  -0.059575
     7  H    0.000000  -0.000723
     8  H    0.000000   0.000121
     9  H    0.000000  -0.000723
    10  C   -0.000000   0.008155
    11  C   -0.000001   0.388758
    12  C   -0.000000   0.004694
    13  C   -0.000000  -0.000478
    14  C    0.000000  -0.000475
    15  C   -0.000000  -0.000022
    16  H    0.000000   0.000057
    17  C   -0.000000   0.000012
    18  H    0.000000   0.000026
    19  H    0.000000   0.000014
    20  H    0.000000  -0.000005
    21  C    0.000020   0.008154
    22  C   -0.000401   0.388759
    23  C    0.002580   0.004694
    24  C    0.000006  -0.000477
    25  C    0.000014  -0.000475
    26  C   -0.000000  -0.000022
    27  H   -0.000000   0.000057
    28  C    0.000001   0.000012
    29  H   -0.000032   0.000026
    30  H   -0.000000   0.000014
    31  H   -0.000000  -0.000005
    32  N    0.000156  -0.077563
    33  N   -0.032307  -0.054800
    34  N   -0.000000  -0.077563
    35  N    0.000000  -0.054800
    36  C   -0.000001  -0.004043
    37  H    0.000000   0.001073
    38  H    0.000000   0.001076
    39  H   -0.000022   0.007951
    40  C    0.376671  -0.004043
    41  H   -0.025706   0.001077
    42  H   -0.025695   0.001072
    43  H    0.478943   0.007951
    44  Co   0.007951  16.349066
          Atomic-Atomic Spin Densities.
               1          2          3          4          5          6
     1  C   -0.397644  -0.006141   0.006028   0.009250   0.006028  -0.006140
     2  C   -0.006141   0.087186   0.002632  -0.002543   0.001359   0.000917
     3  C    0.006028   0.002632  -0.075391  -0.005124   0.000022   0.001359
     4  C    0.009250  -0.002543  -0.005124   0.084785  -0.005124  -0.002543
     5  C    0.006028   0.001359   0.000022  -0.005124  -0.075389   0.002633
     6  C   -0.006140   0.000917   0.001359  -0.002543   0.002633   0.087183
     7  H   -0.001112   0.000614   0.004932   0.002083  -0.000048  -0.000100
     8  H   -0.000170   0.000009  -0.000054   0.000500  -0.000054   0.000009
     9  H   -0.001112  -0.000100  -0.000048   0.002083   0.004932   0.000614
    10  C   -0.000334  -0.000018   0.000001   0.000018   0.000415   0.000207
    11  C    0.006338  -0.000824   0.000006   0.000024  -0.000177  -0.006233
    12  C    0.000080   0.000000   0.000000  -0.000000  -0.000009   0.000010
    13  C    0.000015   0.000000  -0.000000   0.000002  -0.000300  -0.000409
    14  C    0.000000   0.000000  -0.000000  -0.000000  -0.000001  -0.000020
    15  C   -0.000000   0.000000   0.000000  -0.000000   0.000002   0.000007
    16  H   -0.000002  -0.000000  -0.000000   0.000003   0.000094   0.000067
    17  C   -0.000000  -0.000000   0.000000  -0.000000   0.000000   0.000002
    18  H    0.000000  -0.000000   0.000000   0.000000   0.000000   0.000000
    19  H    0.000000   0.000000  -0.000000  -0.000000   0.000000   0.000000
    20  H   -0.000000   0.000000  -0.000000  -0.000000  -0.000000  -0.000000
    21  C   -0.000334   0.000207   0.000415   0.000018   0.000001  -0.000018
    22  C    0.006338  -0.006234  -0.000177   0.000024   0.000006  -0.000824
    23  C    0.000080   0.000010  -0.000009  -0.000000   0.000000   0.000000
    24  C    0.000015  -0.000409  -0.000300   0.000002  -0.000000   0.000000
    25  C    0.000000  -0.000020  -0.000001  -0.000000  -0.000000   0.000000
    26  C   -0.000000   0.000007   0.000002  -0.000000   0.000000   0.000000
    27  H   -0.000002   0.000067   0.000094   0.000003  -0.000000  -0.000000
    28  C   -0.000000   0.000002   0.000000  -0.000000   0.000000  -0.000000
    29  H    0.000000   0.000000   0.000000   0.000000   0.000000  -0.000000
    30  H    0.000000   0.000000   0.000000  -0.000000  -0.000000   0.000000
    31  H   -0.000000  -0.000000  -0.000000  -0.000000  -0.000000   0.000000
    32  N    0.002618   0.012345   0.004937   0.000126   0.000048  -0.000147
    33  N   -0.000674   0.000372  -0.000016  -0.000000  -0.000000   0.000003
    34  N    0.002618  -0.000147   0.000048   0.000126   0.004937   0.012344
    35  N   -0.000674   0.000003  -0.000000  -0.000000  -0.000016   0.000372
    36  C   -0.000020   0.000000  -0.000000  -0.000000  -0.000000  -0.000004
    37  H    0.000001  -0.000000   0.000000   0.000000   0.000000  -0.000001
    38  H    0.000001  -0.000000   0.000000   0.000000   0.000000  -0.000001
    39  H    0.000014  -0.000000   0.000000   0.000000   0.000000   0.000000
    40  C   -0.000020  -0.000004  -0.000000  -0.000000  -0.000000   0.000000
    41  H    0.000001  -0.000001   0.000000   0.000000   0.000000  -0.000000
    42  H    0.000001  -0.000001   0.000000   0.000000   0.000000  -0.000000
    43  H    0.000014   0.000000   0.000000   0.000000   0.000000  -0.000000
    44  Co   0.016880  -0.010427  -0.001910   0.000925  -0.001911  -0.010427
               7          8          9         10         11         12
     1  C   -0.001112  -0.000170  -0.001112  -0.000334   0.006338   0.000080
     2  C    0.000614   0.000009  -0.000100  -0.000018  -0.000824   0.000000
     3  C    0.004932  -0.000054  -0.000048   0.000001   0.000006   0.000000
     4  C    0.002083   0.000500   0.002083   0.000018   0.000024  -0.000000
     5  C   -0.000048  -0.000054   0.004932   0.000415  -0.000177  -0.000009
     6  C   -0.000100   0.000009   0.000614   0.000207  -0.006233   0.000010
     7  H   -0.010087  -0.000176  -0.000027  -0.000000   0.000000  -0.000000
     8  H   -0.000176  -0.004115  -0.000176  -0.000000   0.000000   0.000000
     9  H   -0.000027  -0.000176  -0.010087  -0.000140   0.000017   0.000001
    10  C   -0.000000  -0.000000  -0.000140  -0.004555   0.001770  -0.002038
    11  C    0.000000   0.000000   0.000017   0.001770   0.204469  -0.002298
    12  C   -0.000000   0.000000   0.000001  -0.002038  -0.002298  -0.028695
    13  C    0.000000   0.000000   0.000196   0.004591   0.000271   0.000617
    14  C    0.000000   0.000000   0.000001   0.000951   0.000568  -0.000349
    15  C    0.000000   0.000000   0.000006  -0.000804  -0.000027   0.000221
    16  H   -0.000000  -0.000000  -0.000195  -0.000188   0.000000  -0.000007
    17  C   -0.000000  -0.000000  -0.000000   0.000131  -0.000014  -0.000206
    18  H   -0.000000  -0.000000  -0.000000  -0.000011  -0.000003  -0.000095
    19  H   -0.000000  -0.000000  -0.000000   0.000001  -0.000000  -0.000008
    20  H    0.000000   0.000000   0.000000  -0.000004   0.000000   0.000014
    21  C   -0.000140  -0.000000  -0.000000  -0.000000   0.000001  -0.000000
    22  C    0.000017   0.000000   0.000000   0.000001   0.001601   0.000000
    23  C    0.000001   0.000000  -0.000000  -0.000000   0.000000   0.000000
    24  C    0.000196   0.000000   0.000000   0.000000   0.000000   0.000000
    25  C    0.000001   0.000000   0.000000   0.000000   0.000000   0.000000
    26  C    0.000006   0.000000   0.000000  -0.000000  -0.000000   0.000000
    27  H   -0.000195  -0.000000  -0.000000  -0.000000  -0.000000  -0.000000
    28  C   -0.000000  -0.000000  -0.000000  -0.000000  -0.000000   0.000000
    29  H   -0.000000  -0.000000  -0.000000   0.000000   0.000000  -0.000000
    30  H   -0.000000  -0.000000  -0.000000  -0.000000  -0.000000   0.000000
    31  H    0.000000   0.000000   0.000000   0.000000  -0.000000  -0.000000
    32  N   -0.000759  -0.000002  -0.000002  -0.000000  -0.000052  -0.000000
    33  N    0.000003   0.000000   0.000000   0.000000  -0.000003   0.000000
    34  N   -0.000002  -0.000002  -0.000759  -0.001360  -0.032376   0.001558
    35  N    0.000000   0.000000   0.000003  -0.000792  -0.041323   0.008737
    36  C    0.000000   0.000000   0.000000  -0.000030   0.001102   0.000386
    37  H   -0.000000  -0.000000  -0.000000   0.000003   0.000428  -0.000162
    38  H   -0.000000  -0.000000  -0.000000   0.000003   0.000429  -0.000162
    39  H   -0.000000  -0.000000  -0.000000   0.000001  -0.000750  -0.000063
    40  C    0.000000   0.000000   0.000000   0.000000  -0.000000  -0.000000
    41  H   -0.000000  -0.000000  -0.000000   0.000000   0.000000  -0.000000
    42  H   -0.000000  -0.000000  -0.000000   0.000000   0.000000  -0.000000
    43  H   -0.000000  -0.000000  -0.000000  -0.000000  -0.000000   0.000000
    44  Co   0.000415   0.000041   0.000415   0.001460   0.059920   0.000059
              13         14         15         16         17         18
     1  C    0.000015   0.000000  -0.000000  -0.000002  -0.000000   0.000000
     2  C    0.000000   0.000000   0.000000  -0.000000  -0.000000  -0.000000
     3  C   -0.000000  -0.000000   0.000000  -0.000000   0.000000   0.000000
     4  C    0.000002  -0.000000  -0.000000   0.000003  -0.000000   0.000000
     5  C   -0.000300  -0.000001   0.000002   0.000094   0.000000   0.000000
     6  C   -0.000409  -0.000020   0.000007   0.000067   0.000002   0.000000
     7  H    0.000000   0.000000   0.000000  -0.000000  -0.000000  -0.000000
     8  H    0.000000   0.000000   0.000000  -0.000000  -0.000000  -0.000000
     9  H    0.000196   0.000001   0.000006  -0.000195  -0.000000  -0.000000
    10  C    0.004591   0.000951  -0.000804  -0.000188   0.000131  -0.000011
    11  C    0.000271   0.000568  -0.000027   0.000000  -0.000014  -0.000003
    12  C    0.000617  -0.000349   0.000221  -0.000007  -0.000206  -0.000095
    13  C    0.019182   0.000964  -0.009576   0.000262  -0.001148  -0.000005
    14  C    0.000964   0.052056  -0.002137  -0.000001  -0.006423   0.000095
[...]
 
              Baa    -0.0040    -2.154    -0.769    -0.718 -0.0240  0.3450  0.9383
    41 H(1)   Bbb    -0.0026    -1.377    -0.491    -0.459 -0.6472  0.7100 -0.2776
              Bcc     0.0066     3.531     1.260     1.178  0.7619  0.6139 -0.2063
 
              Baa    -0.0040    -2.153    -0.768    -0.718  0.0240 -0.3450  0.9383
    42 H(1)   Bbb    -0.0026    -1.377    -0.491    -0.459 -0.6472  0.7100  0.2776
              Bcc     0.0066     3.530     1.260     1.177  0.7619  0.6139  0.2062
 
              Baa    -0.0079    -4.218    -1.505    -1.407  0.0001 -0.0003  1.0000
    43 H(1)   Bbb    -0.0068    -3.617    -1.291    -1.206  0.7476 -0.6641 -0.0003
              Bcc     0.0147     7.835     2.796     2.613  0.6641  0.7476  0.0001
 
              Baa    -0.8063  -101.825   -36.334   -33.965  1.0000 -0.0000  0.0000
    44 Co(59) Bbb    -0.0476    -6.017    -2.147    -2.007  0.0000  1.0000 -0.0000
              Bcc     0.8540   107.842    38.481    35.972 -0.0000  0.0000  1.0000
 

 ---------------------------------------------------------------------------------

   1 Symmetry operations used in ECPInt.
 ECPInt:  NShTT=   11781 NPrTT=   71406 LenC2=    9520 LenP2D=   32025.
 LDataN:  DoStor=T MaxTD1= 7 Len=  274
 Calling FoFJK, ICntrl=      2127 FMM=F ISym2X=0 I1Cent= 0 IOpClX= 1 NMat=1 NMatS=1 NMatT=0.
 -------------------------------------------------------------------
 Center     Atomic                   Forces (Hartrees/Bohr)
 Number     Number              X              Y              Z
 -------------------------------------------------------------------
      1        6           0.000001852   -0.078614053   -0.000007033
      2        6           0.055117425    0.034316101    0.000007405
      3        6          -0.006675756    0.002408575   -0.000001112
      4        6           0.000002207    0.004820208   -0.000001528
      5        6           0.006670773    0.002404995   -0.000001090
      6        6          -0.055118238    0.034321033    0.000006247
      7        1          -0.000752156    0.005812312   -0.000000796
      8        1          -0.000000056    0.000366623    0.000000476
      9        1           0.000754033    0.005813470   -0.000000893
     10        6          -0.010195680   -0.008026142    0.000000349
     11        6           0.000712401    0.003482966   -0.000009290
     12        6           0.010086884    0.006047586   -0.000000917
     13        6           0.009720145    0.005350219   -0.000001332
     14        6           0.001501683    0.003503970   -0.000000622
     15        6          -0.008899325    0.002952153    0.000000765
     16        1           0.001021805   -0.000733196   -0.000000388
     17        6           0.000220787   -0.007392673    0.000000191
     18        1           0.001585744    0.000695777    0.000000242
     19        1           0.000903765    0.000216912   -0.000000144
     20        1           0.001892088    0.000095412   -0.000000029
     21        6           0.010200792   -0.008045351   -0.000000528
     22        6          -0.000721233    0.003484133   -0.000011552
     23        6          -0.010085582    0.006057502   -0.000001509
     24        6          -0.009719829    0.005367543   -0.000000965
     25        6          -0.001503375    0.003499127   -0.000000944
     26        6           0.008894167    0.002940621    0.000000312
     27        1          -0.001023735   -0.000738926   -0.000000178
     28        6          -0.000215841   -0.007383222    0.000000473
     29        1          -0.001585239    0.000697338    0.000000027
     30        1          -0.000903453    0.000218002   -0.000000160
     31        1          -0.001894224    0.000094678    0.000000038
     32        7          -0.015763358   -0.047101093    0.000005747
     33        7           0.021568583    0.016735381    0.000008067
     34        7           0.015765682   -0.047104130    0.000003020
     35        7          -0.021563266    0.016734441    0.000006267
     36        6           0.000481659   -0.008242809   -0.000001293
     37        1           0.000810562    0.001095181    0.000960868
     38        1           0.000810321    0.001095212   -0.000960601
     39        1           0.000662326    0.002247716    0.000000916
     40        6          -0.000482115   -0.008243972   -0.000001465
     41        1          -0.000809963    0.001096011   -0.000961224
     42        1          -0.000810611    0.001095037    0.000961226
     43        1          -0.000661909    0.002247305    0.000001033
     44       27          -0.000000741    0.044312026    0.000001926
 -------------------------------------------------------------------
 Cartesian Forces:  Max     0.078614053 RMS     0.013642813

 GradGradGradGradGradGradGradGradGradGradGradGradGradGradGradGradGradGrad
 Berny optimization.
 Search for a local minimum.
 Step number   1 out of a maximum of    2
 All quantities printed in internal units (Hartrees-Bohrs-Radians)
 Second derivative matrix not updated -- first step.
 ITU=  0
     Eigenvalues ---    0.00055   0.00057   0.00199   0.00246   0.00246
     Eigenvalues ---    0.00387   0.00445   0.00612   0.00657   0.00669
     Eigenvalues ---    0.00670   0.00824   0.00844   0.01335   0.01571
     Eigenvalues ---    0.01818   0.02031   0.02063   0.02536   0.02548
     Eigenvalues ---    0.03062   0.03137   0.04097   0.04199   0.04447
     Eigenvalues ---    0.04505   0.04678   0.05374   0.05529   0.06165
     Eigenvalues ---    0.06230   0.06917   0.06948   0.07058   0.07073
     Eigenvalues ---    0.07076   0.07301   0.07669   0.07736   0.09592
     Eigenvalues ---    0.09993   0.10191   0.10383   0.11591   0.11915
     Eigenvalues ---    0.11984   0.12229   0.12342   0.12841   0.13362
     Eigenvalues ---    0.13365   0.13434   0.13662   0.14785   0.15390
     Eigenvalues ---    0.15631   0.15864   0.19539   0.20114   0.20183
     Eigenvalues ---    0.21034   0.21955   0.24065   0.24887   0.28601
     Eigenvalues ---    0.29553   0.29895   0.30697   0.30871   0.31831
     Eigenvalues ---    0.31930   0.34839   0.35415   0.36665   0.37744
     Eigenvalues ---    0.37883   0.41258   0.41770   0.44580   0.47450
     Eigenvalues ---    0.48484   0.48850   0.49292   0.51045   0.52060
     Eigenvalues ---    0.53775   0.54681   0.55367   0.62872   0.63605
     Eigenvalues ---    0.68972   0.71261   0.72695   0.74267   0.86956
     Eigenvalues ---    0.90215   0.91037   0.91101   0.93171   0.94433
     Eigenvalues ---    0.95356   0.97069   1.00037   1.04403   1.12664
     Eigenvalues ---    1.16003   1.16010   1.18696   1.21039   1.24555
     Eigenvalues ---    1.31486   1.38278   1.38523   1.46487   1.47441
     Eigenvalues ---    1.49709   1.50857   1.54449   1.61257   1.64604
     Eigenvalues ---    1.66367   1.67275   1.78721   1.79888   1.86030
     Eigenvalues ---    1.90025
 Quadratic step=4.272D-01 exceeds max=3.000D-01 adjusted using Lamda=-1.531D-02.
 Angle between NR and scaled steps=  23.02 degrees.
 Angle between quadratic step and forces=  48.46 degrees.
 Linear search not attempted -- first point.
 B after Tr=    -0.000000   -0.002213   -0.000001
         Rot=    1.000000   -0.000000   -0.000000    0.000000 Ang=  -0.00 deg.
 Variable       Old X    -DE/DX   Delta X   Delta X   Delta X     New X
                                 (Linear)    (Quad)   (Total)
    X1       -0.00000   0.00000   0.00000   0.00000   0.00000   0.00000
    Y1        1.54774  -0.07861   0.00000  -0.16064  -0.16285   1.38489
    Z1        0.00019  -0.00001   0.00000  -0.00001  -0.00001   0.00018
    X2       -2.43195   0.05512   0.00000   0.08364   0.08364  -2.34832
    Y2        2.56957   0.03432   0.00000  -0.02296  -0.02517   2.54440
    Z2        0.00002   0.00001   0.00000   0.00004   0.00004   0.00006
    X3       -2.35509  -0.00668   0.00000   0.02345   0.02345  -2.33164
    Y3        5.20544   0.00241   0.00000  -0.00011  -0.00232   5.20312
    Z3       -0.00002  -0.00000   0.00000   0.00002   0.00002   0.00000
    X4        0.00000   0.00000   0.00000   0.00000   0.00000   0.00000
    Y4        6.41985   0.00482   0.00000   0.03035   0.02813   6.44798
    Z4        0.00002  -0.00000   0.00000  -0.00000   0.00000   0.00002
    X5        2.35510   0.00667   0.00000  -0.02345  -0.02345   2.33165
    Y5        5.20545   0.00240   0.00000  -0.00011  -0.00232   5.20312
    Z5        0.00007  -0.00000   0.00000   0.00001   0.00001   0.00008
    X6        2.43195  -0.05512   0.00000  -0.08363  -0.08363   2.34832
    Y6        2.56957   0.03432   0.00000  -0.02296  -0.02517   2.54440
    Z6        0.00009   0.00001   0.00000   0.00003   0.00003   0.00012
    X7       -4.07986  -0.00075   0.00000   0.02245   0.02245  -4.05741
    Y7        6.30027   0.00581   0.00000   0.01860   0.01639   6.31666
    Z7       -0.00007  -0.00000   0.00000  -0.00000   0.00000  -0.00007
    X8        0.00000  -0.00000   0.00000   0.00000   0.00000   0.00000
    Y8        8.47242   0.00037   0.00000   0.03013   0.02792   8.50034
    Z8       -0.00002   0.00000   0.00000  -0.00001  -0.00000  -0.00002
    X9        4.07987   0.00075   0.00000  -0.02245  -0.02245   4.05742
    Y9        6.30027   0.00581   0.00000   0.01860   0.01639   6.31665
    Z9        0.00010  -0.00000   0.00000  -0.00002  -0.00001   0.00008
   X10        6.98371  -0.01020   0.00000  -0.04186  -0.04186   6.94185
   Y10        1.10244  -0.00803   0.00000  -0.01558  -0.01779   1.08464
   Z10       -0.00005   0.00000   0.00000  -0.00000  -0.00000  -0.00005
   X11        3.62871   0.00071   0.00000  -0.04348  -0.04348   3.58523
   Y11       -1.71632   0.00348   0.00000   0.00152  -0.00070  -1.71702
   Z11        0.00024  -0.00001   0.00000  -0.00004  -0.00005   0.00019
   X12        7.91331   0.01009   0.00000  -0.01958  -0.01958   7.89372
   Y12       -1.40614   0.00605   0.00000   0.00753   0.00532  -1.40082
   Z12       -0.00017  -0.00000   0.00000   0.00000  -0.00000  -0.00018
   X13        8.59626   0.00972   0.00000  -0.02644  -0.02644   8.56982
   Y13        3.14684   0.00535   0.00000  -0.00448  -0.00670   3.14014
   Z13       -0.00011  -0.00000   0.00000  -0.00001  -0.00001  -0.00012
   X14       10.48870   0.00150   0.00000  -0.01462  -0.01462  10.47407
   Y14       -1.88949   0.00350   0.00000   0.00594   0.00373  -1.88577
   Z14       -0.00037  -0.00000   0.00000   0.00001   0.00000  -0.00037
   X15       11.20797  -0.00890   0.00000  -0.03485  -0.03485  11.17312
   Y15        2.65793   0.00295   0.00000  -0.00380  -0.00602   2.65191
   Z15       -0.00032   0.00000   0.00000  -0.00000  -0.00000  -0.00033
   X16        7.88774   0.00102   0.00000  -0.01210  -0.01210   7.87564
   Y16        5.07005  -0.00073   0.00000  -0.00237  -0.00459   5.06547
   Z16        0.00001  -0.00000   0.00000  -0.00002  -0.00002  -0.00000
   X17       12.12101   0.00022   0.00000  -0.01559  -0.01559  12.10542
   Y17        0.19780  -0.00739   0.00000  -0.00485  -0.00706   0.19074
   Z17       -0.00046   0.00000   0.00000   0.00001   0.00000  -0.00045
   X18       11.18977   0.00159   0.00000   0.00312   0.00312  11.19289
   Y18       -3.81770   0.00070   0.00000   0.01229   0.01008  -3.80762
   Z18       -0.00046   0.00000   0.00000   0.00001   0.00001  -0.00045
   X19       12.51118   0.00090   0.00000  -0.02932  -0.02932  12.48186
   Y19        4.23953   0.00022   0.00000  -0.00436  -0.00658   4.23295
   Z19       -0.00037  -0.00000   0.00000  -0.00001  -0.00000  -0.00037
   X20       14.14176   0.00189   0.00000  -0.00852  -0.00852  14.13324
   Y20       -0.13334   0.00010   0.00000   0.00375   0.00154  -0.13180
   Z20       -0.00062  -0.00000   0.00000   0.00001   0.00001  -0.00061
   X21       -6.98371   0.01020   0.00000   0.04187   0.04187  -6.94184
   Y21        1.10244  -0.00805   0.00000  -0.01559  -0.01781   1.08464
   Z21       -0.00008  -0.00000   0.00000   0.00001   0.00001  -0.00007
   X22       -3.62868  -0.00072   0.00000   0.04347   0.04347  -3.58521
   Y22       -1.71633   0.00348   0.00000   0.00152  -0.00069  -1.71702
   Z22        0.00018  -0.00001   0.00000  -0.00004  -0.00004   0.00013
   X23       -7.91329  -0.01009   0.00000   0.01958   0.01958  -7.89371
   Y23       -1.40616   0.00606   0.00000   0.00754   0.00533  -1.40083
   Z23       -0.00012  -0.00000   0.00000   0.00000  -0.00000  -0.00013
   X24       -8.59626  -0.00972   0.00000   0.02644   0.02644  -8.56982
   Y24        3.14682   0.00537   0.00000  -0.00448  -0.00669   3.14013
   Z24       -0.00010  -0.00000   0.00000  -0.00001  -0.00001  -0.00011
   X25      -10.48868  -0.00150   0.00000   0.01462   0.01462 -10.47406
   Y25       -1.88950   0.00350   0.00000   0.00594   0.00373  -1.88578
   Z25       -0.00019  -0.00000   0.00000  -0.00001  -0.00001  -0.00019
   X26      -11.20797   0.00889   0.00000   0.03485   0.03485 -11.17312
   Y26        2.65792   0.00294   0.00000  -0.00381  -0.00603   2.65190
   Z26       -0.00019   0.00000   0.00000  -0.00001  -0.00000  -0.00019
   X27       -7.88774  -0.00102   0.00000   0.01210   0.01210  -7.87564
   Y27        5.07005  -0.00074   0.00000  -0.00238  -0.00459   5.06545
   Z27       -0.00005  -0.00000   0.00000  -0.00001  -0.00001  -0.00005
   X28      -12.12100  -0.00022   0.00000   0.01560   0.01559 -12.10541
   Y28        0.19778  -0.00738   0.00000  -0.00485  -0.00706   0.19072
   Z28       -0.00024   0.00000   0.00000  -0.00000  -0.00000  -0.00024
   X29      -11.18976  -0.00159   0.00000  -0.00312  -0.00312 -11.19288
   Y29       -3.81771   0.00070   0.00000   0.01230   0.01008  -3.80763
   Z29       -0.00019   0.00000   0.00000  -0.00000  -0.00001  -0.00020
   X30      -12.51118  -0.00090   0.00000   0.02933   0.02932 -12.48186
   Y30        4.23951   0.00022   0.00000  -0.00437  -0.00658   4.23293
   Z30       -0.00020  -0.00000   0.00000  -0.00001  -0.00001  -0.00021
   X31      -14.14175  -0.00189   0.00000   0.00852   0.00852 -14.13323
   Y31       -0.13336   0.00009   0.00000   0.00375   0.00154  -0.13182
   Z31       -0.00029   0.00000   0.00000   0.00000   0.00000  -0.00029
   X32       -4.36537  -0.01576   0.00000   0.03978   0.03978  -4.32559
   Y32        0.89128  -0.04710   0.00000  -0.05200  -0.05421   0.83706
   Z32        0.00002   0.00001   0.00000   0.00003   0.00003   0.00004
   X33       -5.89688   0.02157   0.00000   0.05376   0.05376  -5.84311
   Y33       -3.03217   0.01674   0.00000   0.02676   0.02454  -3.00762
   Z33       -0.00009   0.00001   0.00000   0.00001   0.00001  -0.00008
   X34        4.36537   0.01577   0.00000  -0.03978  -0.03978   4.32559
   Y34        0.89128  -0.04710   0.00000  -0.05200  -0.05421   0.83707
   Z34        0.00014   0.00000   0.00000   0.00001   0.00001   0.00014
   X35        5.89689  -0.02156   0.00000  -0.05376  -0.05376   5.84312
   Y35       -3.03215   0.01673   0.00000   0.02675   0.02454  -3.00761
   Z35       -0.00006   0.00001   0.00000   0.00000   0.00000  -0.00006
   X36        6.04624   0.00048   0.00000  -0.02203  -0.02203   6.02421
   Y36       -5.72599  -0.00824   0.00000   0.01555   0.01333  -5.71265
   Z36        0.00002  -0.00000   0.00000   0.00001   0.00000   0.00002
   X37        7.02138   0.00081   0.00000  -0.00385  -0.00385   7.01753
   Y37       -6.42941   0.00110   0.00000   0.03346   0.03125  -6.39817
   Z37       -1.69034   0.00096   0.00000   0.00491   0.00491  -1.68543
   X38        7.02051   0.00081   0.00000  -0.00386  -0.00386   7.01665
   Y38       -6.42943   0.00110   0.00000   0.03345   0.03124  -6.39820
   Z38        1.69087  -0.00096   0.00000  -0.00489  -0.00489   1.68598
   X39        4.13079   0.00066   0.00000  -0.01577  -0.01577   4.11502
   Y39       -6.50402   0.00225   0.00000   0.01263   0.01041  -6.49360
   Z39       -0.00051   0.00000   0.00000   0.00001   0.00000  -0.00051
   X40       -6.04623  -0.00048   0.00000   0.02204   0.02204  -6.02419
   Y40       -5.72600  -0.00824   0.00000   0.01555   0.01334  -5.71266
   Z40        0.00008  -0.00000   0.00000   0.00001   0.00000   0.00009
   X41       -7.02037  -0.00081   0.00000   0.00386   0.00386  -7.01651
   Y41       -6.42941   0.00110   0.00000   0.03346   0.03124  -6.39817
   Z41        1.69103  -0.00096   0.00000  -0.00488  -0.00489   1.68614
   X42       -7.02148  -0.00081   0.00000   0.00385   0.00385  -7.01763
   Y42       -6.42947   0.00110   0.00000   0.03346   0.03125  -6.39822
   Z42       -1.69018   0.00096   0.00000   0.00492   0.00491  -1.68527
   X43       -4.13077  -0.00066   0.00000   0.01577   0.01577  -4.11500
   Y43       -6.50402   0.00225   0.00000   0.01262   0.01041  -6.49361
   Z43       -0.00057   0.00000   0.00000   0.00001   0.00001  -0.00056
   X44        0.00001  -0.00000   0.00000  -0.00001  -0.00001   0.00001
   Y44       -2.36190   0.04431   0.00000   0.07563   0.07342  -2.28848
   Z44        0.00025   0.00000   0.00000  -0.00005  -0.00005   0.00020
         Item               Value     Threshold  Converged?
 Maximum Force            0.078614     0.000450     NO 
 RMS     Force            0.013643     0.000300     NO 
 Maximum Displacement     0.162851     0.001800     NO 
 RMS     Displacement     0.026084     0.001200     NO 
 Predicted change in Energy=-1.628220D-02
 GradGradGradGradGradGradGradGradGradGradGradGradGradGradGradGradGradGrad

 Unable to Open any file for archive entry.
 1\1\GINC-X11P1N5\Force\UPBE1PBE\GenECP\C22H17Co1N4(3)\MAYUMIAO\17-Jul-
 2024\0\\# pbe1pbe em=gd3bj genecp g09default scf=(xqc,maxcycle=64) for
 ce guess=read nosymm\\Title Card\\0,3\C,-0.00000046,0.81902801,0.00010
 207\C,-1.2869338,1.3597574,0.00000997\C,-1.24625814,2.75460161,-0.0000
 108\C,0.00000122,3.39723621,0.00001167\C,1.24626461,2.75460287,0.00003
 686\C,1.28693416,1.35975541,0.00004938\H,-2.15897128,3.33395911,-0.000
 03944\H,0.00000081,4.48341187,-0.00000971\H,2.15897535,3.3339578,0.000
 05089\C,3.69562017,0.58338531,-0.00002868\C,1.92022942,-0.90823786,0.0
 0012469\C,4.18754068,-0.7440949,-0.00009202\C,4.54894449,1.66523594,-0
 .00005782\C,5.55037887,-0.99987675,-0.00019573\C,5.93100094,1.40651352
 ,-0.00017079\H,4.17401127,2.6829557,0.00000751\C,6.41416018,0.10467323
 ,-0.00024298\H,5.9213729,-2.02023854,-0.00024149\H,6.62062995,2.243460
 78,-0.00019613\H,7.48349667,-0.07055824,-0.00032893\C,-3.69561881,0.58
 338842,-0.00004082\C,-1.92021292,-0.90824286,0.00009402\C,-4.1875337,-
 0.74410572,-0.0000656\C,-4.54894473,1.6652234,-0.00005424\C,-5.5503714
 7,-0.99988242,-0.00009836\C,-5.93099968,1.40651146,-0.00010047\H,-4.17
 401085,2.68295292,-0.00002409\C,-6.41415839,0.10466145,-0.00012493\H,-
 5.9213654,-2.02024723,-0.00010214\H,-6.62063384,2.24345274,-0.00010831
 \H,-7.48349154,-0.07056996,-0.00015418\N,-2.31005205,0.47164358,0.0000
 0875\N,-3.12049264,-1.60455266,-0.00004643\N,2.31005497,0.47164571,0.0
 0007179\N,3.12049802,-1.60454666,-0.00003396\C,3.19953386,-3.03006194,
 0.00000807\H,3.71555241,-3.40229913,-0.89448859\H,3.71509266,-3.402310
 32,0.89476892\H,2.18591806,-3.44177847,-0.00027206\C,-3.19952672,-3.03
 006656,0.00004492\H,-3.71502031,-3.40229876,0.89485246\H,-3.71560687,-
 3.40232755,-0.89440654\H,-2.1859101,-3.44177927,-0.00030121\Co,0.00000
 774,-1.24986131,0.00013438\\Version=ES64L-G16RevC.01\HF=-1212.1109485\
 S2=2.332009\S2-1=0.\S2A=2.008311\RMSD=2.016e-09\RMSF=1.364e-02\Dipole=
 0.0001091,-1.3397248,-0.0001044\Quadrupole=8.3535127,10.9062508,-19.25
 97635,-0.0001621,-0.0003283,0.0001817\PG=C01 [X(C22H17Co1N4)]\\@
 The archive entry for this job was punched.


 ADVERTISING--  HE WHO HAS SOMETHING TO SELL AND GOES AND WHISPERS
                IN A WELL, IS NOT SO APT TO GET THE DOLLARS AS HE
                WHO CLIMBS A TREE AND HOLLERS.

                   -- FROM THE BACK OF A SUGAR PACKET
 Job cpu time:       0 days  0 hours 48 minutes 58.2 seconds.
 Elapsed time:       0 days  0 hours  0 minutes 53.3 seconds.
 File lengths (MBytes):  RWF=    184 Int=      0 D2E=      0 Chk=     72 Scr=      1
 Normal termination of Gaussian 16 at Wed Jul 17 21:12:05 2024.
