 Entering Gaussian System, Link 0=g16
 Input=JOBS/27_B.gjf
 Output=JOBS/27_B.log
 Initial command:
 /data/app/gaussian/C01-avx2//g16/l1.exe "/tmp/Gau-2082005.inp" -scrdir="/tmp/"
 Entering Link 1 = /data/app/gaussian/C01-avx2//g16/l1.exe PID=   2082006.
  
 Copyright (c) 1988-2019, Gaussian, Inc.  All Rights Reserved.
  
 This is part of the Gaussian(R) 16 program.  It is based on
 the Gaussian(R) 09 system (copyright 2009, Gaussian, Inc.),
 the Gaussian(R) 03 system (copyright 2003, Gaussian, Inc.),
 the Gaussian(R) 98 system (copyright 1998, Gaussian, Inc.),
 the Gaussian(R) 94 system (copyright 1995, Gaussian, Inc.),
 the Gaussian 92(TM) system (copyright 1992, Gaussian, Inc.),
 the Gaussian 90(TM) system (copyright 1990, Gaussian, Inc.),
 the Gaussian 88(TM) system (copyright 1988, Gaussian, Inc.),
 the Gaussian 86(TM) system (copyright 1986, Carnegie Mellon
 University), and the Gaussian 82(TM) system (copyright 1983,
 Carnegie Mellon University). Gaussian is a federally registered
 trademark of Gaussian, Inc.
  
 This software contains proprietary and confidential information,
 including trade secrets, belonging to Gaussian, Inc.
  
 This software is provided under written license and may be
 used, copied, transmitted, or stored only in accord with that
 written license.
  
 The following legend is applicable only to US Government
 contracts under FAR:
  
                    RESTRICTED RIGHTS LEGEND
  
 Use, reproduction and disclosure by the US Government is
 subject to restrictions as set forth in subparagraphs (a)
 and (c) of the Commercial Computer Software - Restricted
 Rights clause in FAR 52.227-19.
  
 Gaussian, Inc.
 340 Quinnipiac St., Bldg. 40, Wallingford CT 06492
  
  
 ---------------------------------------------------------------
 Warning -- This program may not be used in any manner that
 competes with the business of Gaussian, Inc. or will provide
 assistance to any competitor of Gaussian, Inc.  The licensee
 of this program is prohibited from giving any competitor of
 Gaussian, Inc. access to this program.  By using this program,
 the user acknowledges that Gaussian, Inc. is engaged in the
 business of creating and licensing software in the field of
 computational chemistry and represents and warrants to the
 licensee that it is not a competitor of Gaussian, Inc. and that
 it will not use this program in any manner prohibited above.
 ---------------------------------------------------------------
  

 Cite this work as:
 Gaussian 16, Revision C.01,
 M. J. Frisch, G. W. Trucks, H. B. Schlegel, G. E. Scuseria, 
 M. A. Robb, J. R. Cheeseman, G. Scalmani, V. Barone, 
 G. A. Petersson, H. Nakatsuji, X. Li, M. Caricato, A. V. Marenich, 
 J. Bloino, B. G. Janesko, R. Gomperts, B. Mennucci, H. P. Hratchian, 
 J. V. Ortiz, A. F. Izmaylov, J. L. Sonnenberg, D. Williams-Young, 
 F. Ding, F. Lipparini, F. Egidi, J. Goings, B. Peng, A. Petrone, 
 T. Henderson, D. Ranasinghe, V. G. Zakrzewski, J. Gao, N. Rega, 
 G. Zheng, W. Liang, M. Hada, M. Ehara, K. Toyota, R. Fukuda, 
 J. Hasegawa, M. Ishida, T. Nakajima, Y. Honda, O. Kitao, H. Nakai, 
 T. Vreven, K. Throssell, J. A. Montgomery, Jr., J. E. Peralta, 
 F. Ogliaro, M. J. Bearpark, J. J. Heyd, E. N. Brothers, K. N. Kudin, 
 V. N. Staroverov, T. A. Keith, R. Kobayashi, J. Normand, 
 K. Raghavachari, A. P. Rendell, J. C. Burant, S. S. Iyengar, 
 J. Tomasi, M. Cossi, J. M. Millam, M. Klene, C. Adamo, R. Cammi, 
 J. W. Ochterski, R. L. Martin, K. Morokuma, O. Farkas, 
 J. B. Foresman, and D. J. Fox, Gaussian, Inc., Wallingford CT, 2019.
 
 ******************************************
 Gaussian 16:  ES64L-G16RevC.01  3-Jul-2019
                17-Jul-2024 
 ******************************************
 %chk=b.chk
 %nprocshared=56
 Will use up to   56 processors via shared memory.
 %mem=96gb
 ----------------------------------------------------------------------
 # pbe1pbe em=gd3bj genecp g09default scf=(xqc,maxcycle=64) force guess
 =read nosymm
 ----------------------------------------------------------------------
 1/10=7,30=1,38=1,158=3,167=1/1,3;
 2/12=2,15=1,17=6,18=5,40=1/2;
 3/5=7,11=2,16=1,17=8,25=1,27=10,30=1,71=1,74=-13,75=-4,116=-2,124=41,158=3/1,2,3;
 4/5=1,60=-1/1;
 5/5=2,7=64,8=3,13=1,38=6,87=10/2,8;
 6/7=2,8=2,9=2,10=2,28=1,87=10/1;
 7/29=1,30=1,87=10/1,2,3,16;
 1/10=7,30=1,158=3,167=1/3;
 99//99;
 Using 2006 physical constants.
 ----------
 Title Card
 ----------
 Symbolic Z-matrix:
 Charge =  0 Multiplicity = 3
 6                     0.00001   0.80023   0.00011 
 6                    -1.28102   1.35945   0.00002 
 6                    -1.24603   2.75678  -0.00001 
 6                    0.         3.40416   0.00001 
 6                     1.24604   2.75677   0.00003 
 6                     1.28101   1.35946   0.00006 
 1                    -2.15855   3.33756  -0.00004 
 1                     0.        4.49178  -0.00001 
 1                     2.15855   3.33756   0.00005 
 6                     3.6922    0.58135  -0.00003 
 6                     1.91976  -0.9102    0.00014 
 6                     4.18888  -0.74292  -0.0001 
 6                     4.55007   1.66488  -0.00006 
 6                     5.5524   -1.00002  -0.0002 
 6                     5.93253   1.40455  -0.00017 
 1                     4.17849   2.6828    0.00001 
 6                     6.4189    0.10524  -0.00024 
 1                     5.92804  -2.0184   -0.00024 
 1                     6.62293   2.24279  -0.0002 
 1                     7.4897   -0.06935  -0.00033 
 6                    -3.69218   0.58132  -0.00004 
 6                    -1.91975  -0.91021   0.0001 
 6                    -4.1889   -0.74292  -0.00007 
 6                    -4.55008   1.6649   -0.00006 
 6                    -5.55237  -1.00003  -0.0001 
 6                    -5.93253   1.40453  -0.0001 
 1                    -4.17849   2.68279  -0.00002 
 6                    -6.4189    0.10524  -0.00012 
 1                    -5.92803  -2.01841  -0.0001 
 1                    -6.62293   2.24278  -0.00011 
 1                    -7.48969  -0.06936  -0.00015 
 7                    -2.30677   0.47008   0.00001 
 7                    -3.12024  -1.60463  -0.00005 
 7                     2.30678   0.47007   0.00008 
 7                     3.12026  -1.60463  -0.00003 
 6                     3.20182  -3.02963   0.00001 
 1                     3.71876  -3.40228  -0.89345 
 1                     3.7183   -3.40229   0.89373 
 1                     2.18761  -3.43934  -0.00027 
 6                    -3.20182  -3.02964   0.00004 
 1                    -3.71822  -3.40228   0.89381 
 1                    -3.71882  -3.40231  -0.89336 
 1                    -2.1876   -3.43935  -0.0003 
 27                    0.00001  -1.25478   0.0001 
 

 GradGradGradGradGradGradGradGradGradGradGradGradGradGradGradGradGradGrad
 Berny optimization.
 Initialization pass.
 Trust Radius=3.00D-01 FncErr=1.00D-07 GrdErr=1.00D-07 EigMax=2.50D+02 EigMin=1.00D-04
 Number of steps in this run=      2 maximum allowed number of steps=      2.
 GradGradGradGradGradGradGradGradGradGradGradGradGradGradGradGradGradGrad

                          Input orientation:                          
 ---------------------------------------------------------------------
 Center     Atomic      Atomic             Coordinates (Angstroms)
 Number     Number       Type             X           Y           Z
 ---------------------------------------------------------------------
      1          6           0        0.000008    0.800227    0.000111
      2          6           0       -1.281015    1.359449    0.000024
      3          6           0       -1.246031    2.756775   -0.000014
      4          6           0       -0.000002    3.404161    0.000008
      5          6           0        1.246040    2.756771    0.000033
      6          6           0        1.281005    1.359457    0.000062
      7          1           0       -2.158547    3.337560   -0.000041
      8          1           0        0.000002    4.491780   -0.000008
      9          1           0        2.158552    3.337559    0.000048
     10          6           0        3.692201    0.581347   -0.000030
     11          6           0        1.919755   -0.910203    0.000137
     12          6           0        4.188882   -0.742917   -0.000095
     13          6           0        4.550070    1.664882   -0.000060
     14          6           0        5.552399   -1.000019   -0.000198
     15          6           0        5.932533    1.404547   -0.000171
     16          1           0        4.178489    2.682799    0.000006
     17          6           0        6.418900    0.105237   -0.000243
     18          1           0        5.928036   -2.018396   -0.000240
     19          1           0        6.622926    2.242790   -0.000197
     20          1           0        7.489701   -0.069351   -0.000328
     21          6           0       -3.692177    0.581320   -0.000042
     22          6           0       -1.919750   -0.910207    0.000104
     23          6           0       -4.188900   -0.742924   -0.000070
     24          6           0       -4.550085    1.664898   -0.000056
     25          6           0       -5.552370   -1.000027   -0.000100
     26          6           0       -5.932526    1.404533   -0.000101
     27          1           0       -4.178491    2.682787   -0.000024
     28          6           0       -6.418905    0.105235   -0.000125
     29          1           0       -5.928030   -2.018406   -0.000101
     30          1           0       -6.622930    2.242783   -0.000109
     31          1           0       -7.489694   -0.069363   -0.000154
     32          7           0       -2.306772    0.470079    0.000013
     33          7           0       -3.120243   -1.604630   -0.000047
     34          7           0        2.306777    0.470070    0.000075
     35          7           0        3.120260   -1.604629   -0.000034
     36          6           0        3.201824   -3.029629    0.000008
     37          1           0        3.718763   -3.402280   -0.893446
     38          1           0        3.718298   -3.402293    0.893730
     39          1           0        2.187613   -3.439344   -0.000275
     40          6           0       -3.201819   -3.029637    0.000044
     41          1           0       -3.718224   -3.402280    0.893813
     42          1           0       -3.718818   -3.402310   -0.893362
     43          1           0       -2.187605   -3.439346   -0.000305
     44         27           0        0.000006   -1.254778    0.000100
 ---------------------------------------------------------------------
                    Distance matrix (angstroms):
                    1          2          3          4          5
     1  C    0.000000
     2  C    1.397766   0.000000
     3  C    2.319632   1.397764   0.000000
     4  C    2.603934   2.412849   1.404171   0.000000
     5  C    2.319625   2.887650   2.492071   1.404184   0.000000
     6  C    1.397745   2.562021   2.887631   2.412839   1.397752
     7  H    3.331279   2.164021   1.081664   2.159573   3.453771
     8  H    3.691553   3.384155   2.136080   1.087620   2.136088
     9  H    3.331271   3.967813   3.453766   2.159581   1.081662
    10  C    3.698675   5.033719   5.396168   4.647648   3.273556
    11  C    2.571186   3.923806   4.844474   4.722202   3.728349
    12  C    4.464075   5.860011   6.464219   5.894489   4.572542
    13  C    4.631489   5.839079   5.898052   4.871164   3.479775
    14  C    5.836945   7.229290   7.767377   7.087027   5.714735
    15  C    5.963225   7.213690   7.304814   6.260465   4.877676
    16  H    4.582988   5.617601   5.425025   4.240300   2.933382
    17  C    6.456406   7.801394   8.110599   7.217007   5.812840
    18  H    6.564004   7.961172   8.617975   8.034037   6.687548
    19  H    6.778202   7.953149   7.885725   6.723983   5.401396
    20  H    7.540004   8.886334   9.181503   8.255963   6.853485
    21  C    3.698669   2.533612   3.273567   4.647644   5.396164
    22  C    2.571197   2.357822   3.728359   4.722203   4.844477
    23  C    4.464108   3.588281   4.572567   5.894504   6.464243
    24  C    4.631522   3.283308   3.479794   4.871169   5.898072
    25  C    5.836936   4.879713   5.714728   7.087007   7.767362
    26  C    5.963233   4.651729   4.877683   6.260460   7.304818
    27  H    4.582999   3.185371   2.933393   4.240301   5.425036
    28  C    6.456428   5.288758   5.812855   7.217010   8.110612
    29  H    6.564017   5.744967   6.687561   8.034037   8.617981
    30  H    6.778221   5.414456   5.401410   6.723985   7.885739
    31  H    7.540015   6.370965   6.853494   8.255959   9.181508
    32  N    2.330286   1.357629   2.520744   3.732295   4.225096
    33  N    3.939455   3.488341   4.747055   5.901177   6.171406
    34  N    2.330276   3.696384   4.225100   3.732307   2.520747
    35  N    3.939455   5.306315   6.171414   5.901187   4.747053
    36  C    4.991936   6.273743   7.298349   7.186469   6.107988
    37  H    5.682310   6.962050   7.961242   7.807375   6.696758
    38  H    5.682025   6.961755   7.960997   7.807196   6.696628
    39  H    4.770701   5.921132   7.083912   7.184652   6.267249
    40  C    4.991949   4.790988   6.108001   7.186473   7.298354
    41  H    5.681991   5.423367   6.696613   7.807157   7.960947
    42  H    5.682366   5.423594   6.696796   7.807416   7.961297
    43  H    4.770706   4.883681   6.267255   7.184650   7.083911
    44  Co   2.055005   2.911219   4.200615   4.658938   4.200610
                    6          7          8          9         10
     6  C    0.000000
     7  H    3.967797   0.000000
     8  H    3.384143   2.447766   0.000000
     9  H    2.164018   4.317100   2.447768   0.000000
    10  C    2.533637   6.467454   5.378087   3.154169   0.000000
    11  C    2.357828   5.888636   5.732964   4.254468   2.316524
    12  C    3.588276   7.545870   6.704385   4.557689   1.414344
    13  C    3.283301   6.914000   5.356722   2.918425   1.382023
    14  C    4.879747   8.847219   7.809544   5.507520   2.441527
    15  C    4.651747   8.318782   6.687746   4.240220   2.386786
    16  H    3.185380   6.370772   4.553259   2.123406   2.156983
    17  C    5.288764   9.166270   7.774575   5.347753   2.767954
    18  H    5.744979   9.699438   8.804771   6.549447   3.428939
    19  H    5.414461   8.849452   6.994361   4.596646   3.368908
    20  H    6.370980  10.232093   8.769237   6.326782   3.852845
    21  C    5.033691   3.154185   5.378093   6.467449   7.384378
    22  C    3.923800   4.254475   5.732968   5.888639   5.806783
    23  C    5.860022   4.557705   6.704403   7.545892   7.991585
    24  C    5.839084   2.918433   5.356729   6.914015   8.313204
    25  C    7.229259   5.507513   7.809531   8.847201   9.378851
    26  C    7.213672   4.240225   6.687748   8.318782   9.659866
    27  H    5.617588   2.123417   4.553268   6.370780   8.146400
    28  C    7.801390   5.347763   7.774583   9.166280  10.122309
    29  H    7.961165   6.549456   8.804776   9.699441   9.965318
    30  H    7.953142   4.596657   6.994370   8.849461  10.448076
    31  H    8.886320   6.326788   8.769240  10.232095  11.200812
    32  N    3.696368   2.871310   4.636301   5.306747   6.000004
    33  N    5.306298   5.034889   6.848515   7.231246   7.154571
    34  N    1.357651   5.306753   4.636310   2.871317   1.389886
    35  N    3.488361   7.231254   6.848520   5.034889   2.259560
    36  C    4.790994   8.323141   8.174550   6.452093   3.644121
    37  H    5.423574   8.987013   8.771751   6.975530   4.082669
    38  H    5.423403   8.986755   8.771596   6.975463   4.082754
    39  H    4.883690   8.050810   8.227295   6.776965   4.292988
    40  C    6.273744   6.452102   8.174557   8.323146   7.782462
    41  H    6.961697   6.975458   8.771563   8.986698   8.460653
    42  H    6.962102   6.975551   8.771794   8.987074   8.461133
    43  H    5.921129   6.776969   8.227296   8.050809   7.123068
    44  Co   2.911217   5.074339   5.746558   5.074335   4.123550
                   11         12         13         14         15
    11  C    0.000000
    12  C    2.275285   0.000000
    13  C    3.680980   2.434739   0.000000
    14  C    3.633754   1.387544   2.847167   0.000000
    15  C    4.632543   2.766210   1.406762   2.434428   0.000000
    16  H    4.244000   3.425732   1.083618   3.930748   2.170392
    17  C    4.612312   2.385863   2.434136   1.404427   1.387356
    18  H    4.158654   2.156734   3.932598   1.085447   3.422946
    19  H    5.662259   3.852144   2.151908   3.414943   1.085953
    20  H    5.633056   3.368841   3.413062   2.149251   2.144095
    21  C    5.806757   7.991540   8.313167   9.378850   9.659853
    22  C    3.839505   6.110922   6.963451   7.472688   8.186357
    23  C    6.110945   8.377782   9.064608   9.744690  10.346740
    24  C    6.963474   9.064608   9.100154  10.448060  10.485850
    25  C    7.472665   9.744645  10.448016  11.104769  11.733924
    26  C    8.186350  10.346712  10.485828  11.733941  11.865059
    27  H    7.078007   9.041481   8.787713  10.404483  10.191502
    28  C    8.400260  10.641640  11.079301  12.022217  12.419591
    29  H    7.925645  10.196999  11.106628  11.525509  12.344617
    30  H    9.105976  11.216492  11.187935  12.599778  12.583414
    31  H    9.446944  11.697983  12.164025  13.075255  13.502911
    32  N    4.446201   6.607941   6.960160   7.995483   8.292127
    33  N    5.087614   7.359746   8.338070   8.693691   9.539806
    34  N    1.433506   2.239120   2.541641   3.563035   3.744243
    35  N    1.386881   1.372772   3.568482   2.506163   4.118740
    36  C    2.477028   2.490650   4.884281   3.105563   5.207561
    37  H    3.200839   2.844521   5.212038   3.151344   5.366964
    38  H    3.200591   2.844759   5.212195   3.151818   5.367272
    39  H    2.543287   3.357945   5.624440   4.155970   6.122720
    40  C    5.542790   7.736378   9.062576   8.986416  10.153737
    41  H    6.228637   8.390090   9.738574   9.618449  10.818591
    42  H    6.229161   8.390591   9.739042   9.618950  10.819069
    43  H    4.823585   6.923172   8.452775   8.115292   9.455154
    44  Co   1.950428   4.220034   5.406246   5.558235   6.501299
                   16         17         18         19         20
    16  H    0.000000
    17  C    3.415152   0.000000
    18  H    5.016189   2.179625   0.000000
    19  H    2.483723   2.147268   4.317474   0.000000
    20  H    4.305630   1.084940   2.497513   2.469270   0.000000
    21  C    8.146386  10.122279   9.965291  10.448054  11.200793
    22  C    7.078009   8.400250   7.925643   9.105970   9.446946
    23  C    9.041503  10.641653  10.197019  11.216508  11.698008
    24  C    8.787725  11.079312  11.106649  11.187945  12.164047
    25  C   10.404462  12.022184  11.525485  12.599750  13.075235
    26  C   10.191496  12.419577  12.344609  12.583403  13.502907
    27  H    8.356980  10.906349  11.146434  10.810374  11.988367
    28  C   10.906356  12.837805  12.528238  13.215842  13.909701
    29  H   11.146437  12.528229  11.856065  13.254594  13.558551
    30  H   10.810378  13.215840  13.254599  13.245856  14.300780
    31  H   11.988365  13.909689  13.558547  14.300772  14.979394
    32  N    6.852353   8.733296   8.602590   9.103955   9.811312
    33  N    8.464842   9.691176   9.057734  10.475304  10.720447
    34  N    2.898185   4.128275   4.393857   4.666013   5.210918
    35  N    4.416095   3.715464   2.838099   5.203009   4.631316
    36  C    5.795318   4.491877   2.907718   6.285089   5.210483
    37  H    6.167479   4.515665   2.755692   6.410840   5.111364
    38  H    6.167566   4.516106   2.756320   6.411157   5.111881
    39  H    6.437719   5.519768   4.001231   7.208235   6.282434
    40  C    9.332785  10.118580   9.185687  11.150072  11.093777
    41  H   10.009254  10.763981   9.785949  11.815475  11.727126
    42  H   10.009701  10.764473   9.786453  11.815945  11.727618
    43  H    8.832203   9.307846   8.239097  10.483898  10.247297
    44  Co   5.741449   6.561390   5.977010   7.489730   7.582926
                   21         22         23         24         25
    21  C    0.000000
    22  C    2.316496   0.000000
    23  C    1.414339   2.275308   0.000000
    24  C    1.382080   3.681009   2.434761   0.000000
    25  C    2.441511   3.633731   1.387499   2.847174   0.000000
    26  C    2.386806   4.632537   2.766189   1.406746   2.434425
    27  H    2.157004   4.243998   3.425727   1.083596   3.930733
    28  C    2.767977   4.612323   2.385854   2.434140   1.404452
    29  H    3.428937   4.158655   2.156717   3.932615   1.085457
    30  H    3.368942   5.662266   3.852136   2.151892   3.414955
    31  H    3.852859   5.633054   3.368817   3.413058   2.149269
    32  N    1.389865   1.433519   2.239147   2.541662   3.563021
    33  N    2.259533   1.386870   1.372795   3.568510   2.506150
    34  N    5.999986   4.446200   6.607963   6.960184   7.995460
    35  N    7.154556   5.087624   7.359779   8.338105   8.693679
    36  C    7.782430   5.542785   7.736396   9.062597   8.986390
    37  H    8.461045   6.229100   8.390556   9.739008   9.618877
    38  H    8.460682   6.228695   8.390166   9.738656   9.618477
    39  H    7.123039   4.823584   6.923193   8.452802   8.115271
    40  C    3.644100   2.477031   2.490660   4.884310   3.105545
    41  H    4.082735   3.200571   2.844774   5.212225   3.151824
    42  H    4.082651   3.200860   2.844518   5.212063   3.151316
    43  H    4.292959   2.543283   3.357957   5.624467   4.155951
    44  Co   4.123526   1.950433   4.220062   5.406277   5.558217
                   26         27         28         29         30
    26  C    0.000000
    27  H    2.170385   0.000000
    28  C    1.387350   3.415147   0.000000
    29  H    3.422942   5.016184   2.179635   0.000000
    30  H    1.085966   2.483725   2.147263   4.317478   0.000000
    31  H    2.144095   4.305624   1.084930   2.497511   2.469271
    32  N    3.744235   2.898174   4.128287   4.393867   4.666016
    33  N    4.118738   4.416089   3.715482   2.838111   5.203019
    34  N    8.292125   6.852358   8.733306   8.602590   9.103965
    35  N    9.539811   8.464851   9.691197   9.057745  10.475320
    36  C   10.153726   9.332778  10.118587   9.185685  11.150073
    37  H   10.819006  10.009639  10.764432   9.786408  11.815897
    38  H   10.818637  10.009309  10.764042   9.785996  11.815533
    39  H    9.455147   8.832201   9.307857   8.239098  10.483905
    40  C    5.207555   5.795315   4.491889   2.907716   6.285095
    41  H    5.367278   6.167563   4.516134   2.756344   6.411174
    42  H    5.366950   6.167476   4.515663   2.755670   6.410838
    43  H    6.122712   6.437713   5.519779   4.001231   7.208239
    44  Co   6.501297   5.741450   6.561406   5.977017   7.489740
                   31         32         33         34         35
    31  H    0.000000
    32  N    5.210919   0.000000
    33  N    4.631322   2.228487   0.000000
    34  N    9.811311   4.613549   5.810072   0.000000
    35  N   10.720455   5.810085   6.240503   2.228482   0.000000
    36  C   11.093770   6.526299   6.480675   3.612340   1.427332
    37  H   11.727566   7.218068   7.127532   4.217485   2.094741
    38  H   11.727170   7.217718   7.127136   4.217370   2.094770
    39  H   10.247295   5.956768   5.616005   3.911230   2.058157
    40  C    5.210479   3.612357   1.427340   6.526299   6.480689
    41  H    5.111898   4.217374   2.094782   7.217652   7.127087
    42  H    5.111346   4.217510   2.094745   7.218127   7.127600
    43  H    6.282431   3.911241   2.058154   5.956761   5.616014
    44  Co   7.582928   2.880339   3.139801   2.880329   3.139806
                   36         37         38         39         40
    36  C    0.000000
    37  H    1.097430   0.000000
    38  H    1.097435   1.787176   0.000000
    39  H    1.093842   1.773005   1.773023   0.000000
    40  C    6.403643   6.987964   6.987529   5.404983   0.000000
    41  H    6.987476   7.648730   7.436522   5.973247   1.097434
    42  H    6.988010   7.437581   7.648816   5.973685   1.097427
    43  H    5.404980   5.973630   5.973303   4.375218   1.093843
    44  Co   3.660839   4.386268   4.385897   3.091595   3.660848
                   41         42         43         44
    41  H    0.000000
    42  H    1.787175   0.000000
    43  H    1.773025   1.773003   0.000000
    44  Co   4.385855   4.386322   3.091598   0.000000
 Symmetry turned off by external request.
 Stoichiometry    C22H17CoN4(3)
 Framework group  C1[X(C22H17CoN4)]
 Deg. of freedom   126
 Full point group                 C1      NOp   1
 Rotational constants (GHZ):           0.4621554           0.1003345           0.0825239
 General basis read from cards:  (5D, 7F)
 ======================================================================================================
                                       Pseudopotential Parameters
 ======================================================================================================
  Center     Atomic      Valence      Angular      Power
  Number     Number     Electrons     Momentum     of R      Exponent        Coefficient   SO-Coeffient
 ======================================================================================================
    1          6
                                   No pseudopotential on this center.
    2          6
                                   No pseudopotential on this center.
    3          6
                                   No pseudopotential on this center.
    4          6
                                   No pseudopotential on this center.
    5          6
                                   No pseudopotential on this center.
    6          6
                                   No pseudopotential on this center.
    7          1
                                   No pseudopotential on this center.
    8          1
                                   No pseudopotential on this center.
    9          1
                                   No pseudopotential on this center.
   10          6
                                   No pseudopotential on this center.
   11          6
                                   No pseudopotential on this center.
   12          6
                                   No pseudopotential on this center.
   13          6
                                   No pseudopotential on this center.
   14          6
                                   No pseudopotential on this center.
   15          6
                                   No pseudopotential on this center.
   16          1
                                   No pseudopotential on this center.
   17          6
                                   No pseudopotential on this center.
   18          1
                                   No pseudopotential on this center.
   19          1
                                   No pseudopotential on this center.
   20          1
                                   No pseudopotential on this center.
   21          6
                                   No pseudopotential on this center.
   22          6
                                   No pseudopotential on this center.
   23          6
                                   No pseudopotential on this center.
   24          6
                                   No pseudopotential on this center.
   25          6
                                   No pseudopotential on this center.
   26          6
                                   No pseudopotential on this center.
   27          1
                                   No pseudopotential on this center.
   28          6
                                   No pseudopotential on this center.
   29          1
                                   No pseudopotential on this center.
   30          1
                                   No pseudopotential on this center.
   31          1
                                   No pseudopotential on this center.
   32          7
                                   No pseudopotential on this center.
   33          7
                                   No pseudopotential on this center.
   34          7
                                   No pseudopotential on this center.
   35          7
                                   No pseudopotential on this center.
   36          6
                                   No pseudopotential on this center.
   37          1
                                   No pseudopotential on this center.
   38          1
                                   No pseudopotential on this center.
   39          1
                                   No pseudopotential on this center.
   40          6
                                   No pseudopotential on this center.
   41          1
                                   No pseudopotential on this center.
   42          1
                                   No pseudopotential on this center.
   43          1
                                   No pseudopotential on this center.
   44         27           17
                                      F and up 
                                                     2        1.0000000        0.00000000    0.00000000
                                      S - F
                                                     2       23.6600000      283.96056600    0.00000000
                                                     2       10.6100000       47.15684600    0.00000000
                                      P - F
                                                     2       25.0400000      182.21223600    0.00000000
                                                     2       10.4400000       35.23335200    0.00000000
                                      D - F
                                                     2       29.5400000      -26.47533300    0.00000000
                                                     2       10.1800000       -1.82578700    0.00000000
 ======================================================================================================
   441 basis functions,   871 primitive gaussians,   473 cartesian basis functions
    98 alpha electrons       96 beta electrons
       nuclear repulsion energy      2483.9400747140 Hartrees.
 NAtoms=   44 NActive=   44 NUniq=   44 SFac= 1.00D+00 NAtFMM=   60 NAOKFM=F Big=F
 Integral buffers will be    131072 words long.
 Raffenetti 2 integral format.
 Two-electron integral symmetry is turned off.
 Nuclear repulsion after empirical dispersion term =     2483.8809842287 Hartrees.
 One-electron integrals computed using PRISM.
   1 Symmetry operations used in ECPInt.
 ECPInt:  NShTT=   11781 NPrTT=   71406 LenC2=    9520 LenP2D=   32015.
 LDataN:  DoStor=T MaxTD1= 6 Len=  172
 NBasis=   441 RedAO= T EigKep=  3.23D-04  NBF=   441
 NBsUse=   441 1.00D-06 EigRej= -1.00D+00 NBFU=   441
 Initial guess from the checkpoint file:  "b.chk"
 B after Tr=    -0.000000   -0.000388   -0.000005
         Rot=    1.000000   -0.000001   -0.000000    0.000000 Ang=  -0.00 deg.
 Initial guess <Sx>= 0.0000 <Sy>= 0.0000 <Sz>= 1.0000 <S**2>= 2.3367 S= 1.1083
 Requested convergence on RMS density matrix=1.00D-08 within  64 cycles.
 Requested convergence on MAX density matrix=1.00D-06.
 Requested convergence on             energy=1.00D-06.
 No special actions if energy rises.
 Restarting incremental Fock formation.
 SCF Done:  E(UPBE1PBE) =  -1212.11481538     A.U. after   25 cycles
            NFock= 25  Conv=0.28D-08     -V/T= 2.0552
 <Sx>= 0.0000 <Sy>= 0.0000 <Sz>= 1.0000 <S**2>= 2.3177 S= 1.1024
 <L.S>=  0.00000000000    
 Annihilation of the first spin contaminant:
 S**2 before annihilation     2.3177,   after     2.0079
 QCSCF skips out because SCF is already converged.

 **********************************************************************

            Population analysis using the SCF Density.

 **********************************************************************

 Alpha  occ. eigenvalues --  -14.45252 -14.45252 -14.45059 -14.45059 -10.28009
 Alpha  occ. eigenvalues --  -10.28009 -10.27436 -10.27435 -10.27272 -10.27272
 Alpha  occ. eigenvalues --  -10.27128 -10.27128 -10.26620 -10.26619 -10.23645
 Alpha  occ. eigenvalues --  -10.23645 -10.23553 -10.23553 -10.23061 -10.23060
 Alpha  occ. eigenvalues --  -10.22979 -10.22979 -10.22449 -10.22416 -10.22384
 Alpha  occ. eigenvalues --  -10.20956  -3.93466  -2.45413  -2.43725  -2.43238
 Alpha  occ. eigenvalues --   -1.05762  -1.05681  -0.97138  -0.96747  -0.88046
 Alpha  occ. eigenvalues --   -0.87627  -0.85618  -0.80455  -0.78858  -0.77641
 Alpha  occ. eigenvalues --   -0.77637  -0.75528  -0.74890  -0.73241  -0.72362
 Alpha  occ. eigenvalues --   -0.66773  -0.65308  -0.64357  -0.64124  -0.62687
 Alpha  occ. eigenvalues --   -0.61357  -0.58934  -0.57640  -0.56580  -0.53958
 Alpha  occ. eigenvalues --   -0.53099  -0.52265  -0.49745  -0.49662  -0.49129
 Alpha  occ. eigenvalues --   -0.48574  -0.48122  -0.47190  -0.46739  -0.45897
 Alpha  occ. eigenvalues --   -0.45709  -0.45324  -0.44879  -0.44825  -0.44163
 Alpha  occ. eigenvalues --   -0.42772  -0.41913  -0.41308  -0.38930  -0.38568
 Alpha  occ. eigenvalues --   -0.38435  -0.37679  -0.37294  -0.37134  -0.36919
 Alpha  occ. eigenvalues --   -0.36388  -0.35084  -0.34561  -0.33988  -0.31983
 Alpha  occ. eigenvalues --   -0.31339  -0.30424  -0.26875  -0.26720  -0.26641
 Alpha  occ. eigenvalues --   -0.26175  -0.25994  -0.24564  -0.24189  -0.22931
 Alpha  occ. eigenvalues --   -0.20845  -0.20676  -0.10112
 Alpha virt. eigenvalues --   -0.06343  -0.02905  -0.00274  -0.00025   0.00344
 Alpha virt. eigenvalues --    0.02269   0.02799   0.03561   0.03806   0.05589
 Alpha virt. eigenvalues --    0.06157   0.07658   0.07689   0.09694   0.10223
 Alpha virt. eigenvalues --    0.12564   0.12996   0.13866   0.13898   0.14880
 Alpha virt. eigenvalues --    0.15228   0.15320   0.15845   0.15989   0.16509
 Alpha virt. eigenvalues --    0.16913   0.17671   0.17867   0.17904   0.18186
 Alpha virt. eigenvalues --    0.19399   0.19822   0.19889   0.19971   0.21030
 Alpha virt. eigenvalues --    0.21802   0.22226   0.22925   0.23944   0.25428
 Alpha virt. eigenvalues --    0.25669   0.25706   0.26324   0.27653   0.27673
 Alpha virt. eigenvalues --    0.27968   0.28671   0.29913   0.30659   0.31241
 Alpha virt. eigenvalues --    0.32846   0.33119   0.33943   0.34686   0.36315
 Alpha virt. eigenvalues --    0.37440   0.37748   0.39349   0.39370   0.41432
 Alpha virt. eigenvalues --    0.42242   0.44231   0.44237   0.46036   0.46806
 Alpha virt. eigenvalues --    0.46884   0.49499   0.51206   0.51720   0.51884
 Alpha virt. eigenvalues --    0.53814   0.54014   0.56168   0.56178   0.56291
 Alpha virt. eigenvalues --    0.56866   0.57090   0.58011   0.58353   0.58659
 Alpha virt. eigenvalues --    0.58689   0.59481   0.60297   0.61517   0.61526
 Alpha virt. eigenvalues --    0.61556   0.63035   0.63105   0.63177   0.63521
 Alpha virt. eigenvalues --    0.63525   0.63664   0.64032   0.64339   0.65081
 Alpha virt. eigenvalues --    0.65433   0.65960   0.65973   0.66951   0.67332
 Alpha virt. eigenvalues --    0.68077   0.68471   0.68761   0.70964   0.71917
 Alpha virt. eigenvalues --    0.72125   0.73423   0.75068   0.75468   0.76272
 Alpha virt. eigenvalues --    0.76980   0.77928   0.79404   0.79715   0.81064
 Alpha virt. eigenvalues --    0.81643   0.82352   0.82931   0.83715   0.84247
 Alpha virt. eigenvalues --    0.84532   0.84978   0.86446   0.86584   0.86619
 Alpha virt. eigenvalues --    0.87520   0.87782   0.89577   0.89692   0.90536
 Alpha virt. eigenvalues --    0.91025   0.91412   0.91665   0.92889   0.93335
 Alpha virt. eigenvalues --    0.93578   0.94411   0.95062   0.95211   0.95818
 Alpha virt. eigenvalues --    0.97166   0.97625   0.97796   0.98383   0.98438
 Alpha virt. eigenvalues --    1.00189   1.00218   1.01316   1.02113   1.02539
 Alpha virt. eigenvalues --    1.02788   1.03898   1.06204   1.07195   1.07642
 Alpha virt. eigenvalues --    1.08487   1.09479   1.09543   1.10690   1.13621
 Alpha virt. eigenvalues --    1.14957   1.15587   1.16448   1.18238   1.18563
 Alpha virt. eigenvalues --    1.19225   1.19586   1.23559   1.23718   1.24160
 Alpha virt. eigenvalues --    1.24540   1.26002   1.26437   1.26724   1.28868
 Alpha virt. eigenvalues --    1.29072   1.29360   1.31245   1.33408   1.33749
 Alpha virt. eigenvalues --    1.36239   1.36366   1.36635   1.38555   1.39385
 Alpha virt. eigenvalues --    1.41258   1.41862   1.42483   1.42514   1.45061
 Alpha virt. eigenvalues --    1.45273   1.45677   1.45903   1.47522   1.48256
 Alpha virt. eigenvalues --    1.49438   1.50003   1.50218   1.50317   1.50341
 Alpha virt. eigenvalues --    1.50687   1.52300   1.53032   1.56608   1.56895
 Alpha virt. eigenvalues --    1.58266   1.61558   1.63974   1.64720   1.65713
 Alpha virt. eigenvalues --    1.70270   1.72246   1.72902   1.76488   1.77212
 Alpha virt. eigenvalues --    1.78350   1.79720   1.79799   1.82248   1.82946
 Alpha virt. eigenvalues --    1.84766   1.86699   1.86853   1.87427   1.88010
 Alpha virt. eigenvalues --    1.88101   1.89601   1.91217   1.91675   1.93325
 Alpha virt. eigenvalues --    1.95094   1.95243   1.96530   1.96991   1.97846
 Alpha virt. eigenvalues --    1.98051   1.98307   1.98583   1.99163   1.99752
 Alpha virt. eigenvalues --    2.00378   2.01267   2.02526   2.03365   2.05919
 Alpha virt. eigenvalues --    2.06483   2.07092   2.09357   2.09946   2.12333
 Alpha virt. eigenvalues --    2.12821   2.14280   2.15229   2.15278   2.16099
 Alpha virt. eigenvalues --    2.16586   2.16626   2.19089   2.19589   2.20498
 Alpha virt. eigenvalues --    2.21150   2.21294   2.21721   2.23551   2.24331
 Alpha virt. eigenvalues --    2.24484   2.26290   2.27346   2.27521   2.27555
 Alpha virt. eigenvalues --    2.27813   2.28048   2.28405   2.28641   2.32694
 Alpha virt. eigenvalues --    2.34144   2.38232   2.39286   2.40502   2.40531
 Alpha virt. eigenvalues --    2.42477   2.43808   2.44580   2.45379   2.46746
 Alpha virt. eigenvalues --    2.51275   2.51489   2.57216   2.58572   2.58824
 Alpha virt. eigenvalues --    2.59330   2.60055   2.60178   2.62073   2.63919
 Alpha virt. eigenvalues --    2.64998   2.66607   2.67142   2.68996   2.69279
 Alpha virt. eigenvalues --    2.69436   2.70819   2.72321   2.74790   2.75009
 Alpha virt. eigenvalues --    2.75077   2.76389   2.77716   2.78792   2.80017
 Alpha virt. eigenvalues --    2.82709   2.84946   2.87564   2.88352   2.92337
 Alpha virt. eigenvalues --    2.93063   2.96686   2.98127   2.99604   2.99852
 Alpha virt. eigenvalues --    3.06011   3.06746   3.14791   3.18512   3.19188
 Alpha virt. eigenvalues --    3.29180   3.39458   3.45507   3.47064   3.51987
 Alpha virt. eigenvalues --    3.52121   3.55675   5.55313   5.56673   5.57163
 Alpha virt. eigenvalues --    5.59663   5.61058   5.61154   5.62733  45.70315
 Alpha virt. eigenvalues --   45.84867  45.91644  63.01101
  Beta  occ. eigenvalues --  -14.45122 -14.45122 -14.45033 -14.45033 -10.27787
  Beta  occ. eigenvalues --  -10.27786 -10.27438 -10.27438 -10.27281 -10.27281
  Beta  occ. eigenvalues --  -10.27165 -10.27165 -10.26508 -10.26507 -10.23586
  Beta  occ. eigenvalues --  -10.23586 -10.23531 -10.23530 -10.23067 -10.23067
  Beta  occ. eigenvalues --  -10.22947 -10.22947 -10.22517 -10.22512 -10.22301
  Beta  occ. eigenvalues --  -10.21531  -3.85748  -2.36996  -2.36487  -2.34020
  Beta  occ. eigenvalues --   -1.05560  -1.05474  -0.96971  -0.96543  -0.88045
  Beta  occ. eigenvalues --   -0.87556  -0.85718  -0.80396  -0.78839  -0.77590
  Beta  occ. eigenvalues --   -0.77573  -0.75393  -0.74691  -0.73253  -0.72599
  Beta  occ. eigenvalues --   -0.66812  -0.65215  -0.64109  -0.64107  -0.62680
  Beta  occ. eigenvalues --   -0.61261  -0.58927  -0.57730  -0.56575  -0.53935
  Beta  occ. eigenvalues --   -0.53083  -0.52243  -0.49281  -0.49212  -0.49094
  Beta  occ. eigenvalues --   -0.48598  -0.48284  -0.47168  -0.46701  -0.45865
  Beta  occ. eigenvalues --   -0.45714  -0.45293  -0.44831  -0.44530  -0.43854
  Beta  occ. eigenvalues --   -0.42814  -0.41890  -0.41320  -0.38661  -0.38609
  Beta  occ. eigenvalues --   -0.38570  -0.37279  -0.37230  -0.36543  -0.36518
  Beta  occ. eigenvalues --   -0.35843  -0.35161  -0.34017  -0.33334  -0.31647
  Beta  occ. eigenvalues --   -0.29788  -0.27529  -0.26481  -0.25906  -0.24884
  Beta  occ. eigenvalues --   -0.23828  -0.23328  -0.21954  -0.20691  -0.19795
  Beta  occ. eigenvalues --   -0.19697
  Beta virt. eigenvalues --   -0.04457  -0.04000  -0.00689  -0.00377  -0.00115
  Beta virt. eigenvalues --    0.01333   0.01710   0.02451   0.03547   0.05375
  Beta virt. eigenvalues --    0.05657   0.05979   0.07911   0.08776   0.09301
  Beta virt. eigenvalues --    0.10245   0.10649   0.12655   0.13094   0.13989
  Beta virt. eigenvalues --    0.14214   0.15294   0.15367   0.16011   0.16023
  Beta virt. eigenvalues --    0.16650   0.16656   0.16960   0.17758   0.18038
  Beta virt. eigenvalues --    0.18485   0.18808   0.19543   0.19903   0.20226
  Beta virt. eigenvalues --    0.21564   0.21926   0.22404   0.22734   0.22911
  Beta virt. eigenvalues --    0.24002   0.25754   0.25794   0.26277   0.27063
  Beta virt. eigenvalues --    0.27699   0.28071   0.29047   0.29152   0.30286
  Beta virt. eigenvalues --    0.30965   0.31357   0.32973   0.33101   0.34314
  Beta virt. eigenvalues --    0.34734   0.36440   0.37691   0.38035   0.39458
  Beta virt. eigenvalues --    0.39510   0.41422   0.42643   0.44419   0.44741
  Beta virt. eigenvalues --    0.46153   0.47179   0.47365   0.49789   0.51296
  Beta virt. eigenvalues --    0.51859   0.51890   0.53912   0.54150   0.56206
  Beta virt. eigenvalues --    0.56215   0.56490   0.56927   0.57153   0.58190
  Beta virt. eigenvalues --    0.58484   0.58702   0.58964   0.59536   0.60360
  Beta virt. eigenvalues --    0.61529   0.61683   0.61740   0.63029   0.63090
  Beta virt. eigenvalues --    0.63347   0.63560   0.63707   0.63708   0.64066
  Beta virt. eigenvalues --    0.64336   0.65077   0.65424   0.66029   0.66182
  Beta virt. eigenvalues --    0.67377   0.67626   0.68111   0.68557   0.68696
  Beta virt. eigenvalues --    0.70973   0.72020   0.72166   0.73733   0.75327
  Beta virt. eigenvalues --    0.75479   0.76396   0.77080   0.78377   0.79550
  Beta virt. eigenvalues --    0.80316   0.81260   0.81866   0.82576   0.82981
  Beta virt. eigenvalues --    0.84121   0.84340   0.84589   0.85243   0.86583
  Beta virt. eigenvalues --    0.86653   0.87072   0.87534   0.87789   0.89702
  Beta virt. eigenvalues --    0.89849   0.90593   0.91186   0.91513   0.91796
  Beta virt. eigenvalues --    0.92916   0.93341   0.93627   0.95151   0.95244
  Beta virt. eigenvalues --    0.96159   0.96351   0.97170   0.97839   0.98014
  Beta virt. eigenvalues --    0.98433   0.98444   1.00193   1.00314   1.01368
  Beta virt. eigenvalues --    1.02165   1.02572   1.02815   1.03975   1.06300
  Beta virt. eigenvalues --    1.07227   1.08569   1.09107   1.09537   1.11031
  Beta virt. eigenvalues --    1.13684   1.15062   1.15636   1.16478   1.16563
  Beta virt. eigenvalues --    1.18262   1.18595   1.19258   1.19705   1.23617
  Beta virt. eigenvalues --    1.23855   1.24379   1.24597   1.26470   1.26580
  Beta virt. eigenvalues --    1.26906   1.29036   1.29261   1.29527   1.31213
  Beta virt. eigenvalues --    1.33777   1.34049   1.36495   1.36637   1.36799
  Beta virt. eigenvalues --    1.38698   1.39760   1.41506   1.42150   1.42569
  Beta virt. eigenvalues --    1.43024   1.45003   1.45374   1.45826   1.46089
  Beta virt. eigenvalues --    1.47699   1.48365   1.49621   1.50013   1.50366
  Beta virt. eigenvalues --    1.50435   1.50503   1.50955   1.52757   1.54287
  Beta virt. eigenvalues --    1.56810   1.56868   1.59111   1.61713   1.64072
  Beta virt. eigenvalues --    1.65475   1.65965   1.70327   1.72656   1.73048
  Beta virt. eigenvalues --    1.76709   1.77188   1.78652   1.79720   1.79918
  Beta virt. eigenvalues --    1.82334   1.83040   1.84840   1.86827   1.86955
  Beta virt. eigenvalues --    1.87453   1.87850   1.88068   1.89796   1.91246
  Beta virt. eigenvalues --    1.91741   1.93356   1.95116   1.95303   1.96565
  Beta virt. eigenvalues --    1.97061   1.97997   1.98107   1.98302   1.98618
  Beta virt. eigenvalues --    1.99300   1.99985   2.00416   2.01305   2.02572
  Beta virt. eigenvalues --    2.03431   2.06041   2.06658   2.07330   2.09540
  Beta virt. eigenvalues --    2.09864   2.12483   2.12822   2.14603   2.15257
  Beta virt. eigenvalues --    2.15344   2.16169   2.16651   2.16711   2.19196
  Beta virt. eigenvalues --    2.19836   2.20609   2.21238   2.21367   2.21848
  Beta virt. eigenvalues --    2.23807   2.24634   2.24704   2.26505   2.27499
  Beta virt. eigenvalues --    2.27555   2.27688   2.27939   2.28202   2.28594
  Beta virt. eigenvalues --    2.28833   2.32793   2.34566   2.38365   2.39587
  Beta virt. eigenvalues --    2.40635   2.40766   2.44180   2.44759   2.45695
  Beta virt. eigenvalues --    2.46790   2.48464   2.51373   2.51559   2.57415
  Beta virt. eigenvalues --    2.58839   2.58874   2.59199   2.60241   2.60485
  Beta virt. eigenvalues --    2.62161   2.64125   2.65223   2.66715   2.67538
  Beta virt. eigenvalues --    2.69361   2.69460   2.69607   2.72186   2.72996
  Beta virt. eigenvalues --    2.74898   2.75126   2.75339   2.77293   2.78031
  Beta virt. eigenvalues --    2.79142   2.80092   2.82888   2.85351   2.87811
  Beta virt. eigenvalues --    2.88488   2.93060   2.93232   2.96965   2.98075
  Beta virt. eigenvalues --    2.99934   3.00112   3.06181   3.06951   3.14829
  Beta virt. eigenvalues --    3.18757   3.19387   3.28967   3.39499   3.46139
  Beta virt. eigenvalues --    3.47074   3.52009   3.52129   3.58695   5.61438
  Beta virt. eigenvalues --    5.63470   5.63669   5.63814   5.65389   5.68095
  Beta virt. eigenvalues --    5.69364  45.81015  45.93419  45.99656  63.07712
          Condensed to atoms (all electrons):
               1          2          3          4          5          6
     1  C    5.200637   0.500356  -0.061554  -0.055624  -0.061556   0.500366
     2  C    0.500356   4.570339   0.527934  -0.013825  -0.039526  -0.018096
     3  C   -0.061554   0.527934   5.043243   0.526495  -0.031269  -0.039527
     4  C   -0.055624  -0.013825   0.526495   4.910096   0.526487  -0.013824
     5  C   -0.061556  -0.039526  -0.031269   0.526487   5.043257   0.527936
     6  C    0.500366  -0.018096  -0.039527  -0.013824   0.527936   4.570313
     7  H    0.006072  -0.038786   0.345597  -0.038993   0.003872   0.000746
     8  H    0.001388   0.002480  -0.035239   0.366541  -0.035239   0.002479
     9  H    0.006072   0.000746   0.003872  -0.038992   0.345597  -0.038785
    10  C    0.006171  -0.000028   0.000002   0.000116  -0.005001  -0.044739
    11  C    0.007935   0.001890  -0.000044   0.000040   0.002518  -0.063374
    12  C   -0.000714   0.000001  -0.000000   0.000001   0.000112   0.007381
    13  C    0.000178   0.000001  -0.000001   0.000057   0.001727  -0.004408
    14  C    0.000002  -0.000000   0.000000  -0.000000   0.000001  -0.000039
    15  C    0.000001  -0.000000   0.000000  -0.000001   0.000073   0.000066
    16  H   -0.000029   0.000000   0.000001   0.000102   0.000051   0.000818
    17  C    0.000000   0.000000   0.000000   0.000000  -0.000000  -0.000001
    18  H   -0.000000   0.000000   0.000000   0.000000  -0.000000   0.000003
    19  H   -0.000000   0.000000  -0.000000   0.000000   0.000002  -0.000003
    20  H    0.000000  -0.000000   0.000000  -0.000000  -0.000000  -0.000000
    21  C    0.006171  -0.044743  -0.005000   0.000116   0.000002  -0.000028
    22  C    0.007934  -0.063375   0.002517   0.000040  -0.000044   0.001890
    23  C   -0.000714   0.007380   0.000112   0.000001  -0.000000   0.000001
    24  C    0.000178  -0.004407   0.001727   0.000057  -0.000001   0.000001
    25  C    0.000002  -0.000039   0.000001  -0.000000   0.000000  -0.000000
    26  C    0.000001   0.000066   0.000073  -0.000001   0.000000  -0.000000
    27  H   -0.000029   0.000817   0.000051   0.000102   0.000001   0.000000
    28  C    0.000000  -0.000001  -0.000000   0.000000   0.000000   0.000000
    29  H   -0.000000   0.000003  -0.000000   0.000000   0.000000   0.000000
    30  H   -0.000000  -0.000003   0.000002   0.000000  -0.000000   0.000000
    31  H    0.000000  -0.000000  -0.000000  -0.000000   0.000000  -0.000000
    32  N   -0.040045   0.268628  -0.070190   0.004585   0.000087   0.006220
    33  N    0.001218   0.006110  -0.000158   0.000001   0.000000  -0.000034
    34  N   -0.040047   0.006220   0.000087   0.004585  -0.070191   0.268624
    35  N    0.001218  -0.000034   0.000000   0.000001  -0.000158   0.006110
    36  C   -0.000007   0.000000   0.000000  -0.000000   0.000002  -0.000051
    37  H   -0.000000  -0.000000   0.000000   0.000000  -0.000000   0.000004
    38  H   -0.000000  -0.000000   0.000000   0.000000  -0.000000   0.000004
    39  H   -0.000020   0.000001   0.000000  -0.000000   0.000000  -0.000010
    40  C   -0.000007  -0.000051   0.000002  -0.000000   0.000000   0.000000
    41  H   -0.000000   0.000004  -0.000000   0.000000   0.000000  -0.000000
    42  H   -0.000000   0.000004  -0.000000   0.000000   0.000000  -0.000000
    43  H   -0.000020  -0.000010   0.000000  -0.000000   0.000000   0.000001
    44  Co   0.255535  -0.059870   0.003920   0.003487   0.003920  -0.059869
               7          8          9         10         11         12
     1  C    0.006072   0.001388   0.006072   0.006171   0.007935  -0.000714
     2  C   -0.038786   0.002480   0.000746  -0.000028   0.001890   0.000001
     3  C    0.345597  -0.035239   0.003872   0.000002  -0.000044  -0.000000
     4  C   -0.038993   0.366541  -0.038992   0.000116   0.000040   0.000001
     5  C    0.003872  -0.035239   0.345597  -0.005001   0.002518   0.000112
     6  C    0.000746   0.002479  -0.038785  -0.044739  -0.063374   0.007381
     7  H    0.555329  -0.004130  -0.000100  -0.000000  -0.000000   0.000000
     8  H   -0.004130   0.541373  -0.004130  -0.000002   0.000001  -0.000000
     9  H   -0.000100  -0.004130   0.555326   0.000423  -0.000159  -0.000040
    10  C   -0.000000  -0.000002   0.000423   4.637854  -0.068452   0.514131
    11  C   -0.000000   0.000001  -0.000159  -0.068452   4.814733  -0.056396
    12  C    0.000000  -0.000000  -0.000040   0.514131  -0.056396   4.647176
    13  C   -0.000000   0.000002  -0.000024   0.541591   0.004714  -0.055743
    14  C   -0.000000   0.000000   0.000000  -0.048842   0.005606   0.534362
    15  C   -0.000000   0.000000   0.000108  -0.006276  -0.000072  -0.037865
    16  H    0.000000  -0.000010   0.006224  -0.034439  -0.000157   0.003737
    17  C    0.000000  -0.000000   0.000002  -0.039510  -0.000079  -0.007916
    18  H    0.000000  -0.000000  -0.000000   0.003981  -0.000209  -0.038078
    19  H    0.000000   0.000000  -0.000009   0.001944   0.000003   0.000936
    20  H   -0.000000  -0.000000   0.000000   0.000912   0.000003   0.002306
    21  C    0.000423  -0.000002  -0.000000  -0.000000  -0.000007   0.000000
    22  C   -0.000159   0.000001  -0.000000  -0.000007  -0.012393  -0.000002
    23  C   -0.000040  -0.000000   0.000000   0.000000  -0.000002  -0.000000
    24  C   -0.000024   0.000002  -0.000000   0.000000   0.000000   0.000000
    25  C    0.000000   0.000000  -0.000000  -0.000000   0.000000   0.000000
    26  C    0.000108   0.000000  -0.000000  -0.000000  -0.000000   0.000000
    27  H    0.006224  -0.000010   0.000000   0.000000   0.000000  -0.000000
    28  C    0.000002  -0.000000   0.000000   0.000000  -0.000000  -0.000000
    29  H   -0.000000  -0.000000   0.000000   0.000000   0.000000  -0.000000
    30  H   -0.000009   0.000000   0.000000   0.000000   0.000000   0.000000
    31  H    0.000000  -0.000000  -0.000000   0.000000   0.000000   0.000000
    32  N   -0.004055  -0.000095   0.000007   0.000000   0.000224   0.000000
    33  N    0.000002  -0.000000  -0.000000   0.000000   0.000018   0.000000
    34  N    0.000007  -0.000095  -0.004055   0.257479   0.341791  -0.038874
    35  N   -0.000000  -0.000000   0.000002  -0.045933   0.307130   0.272838
    36  C   -0.000000   0.000000  -0.000000   0.005730  -0.043784  -0.047479
    37  H    0.000000  -0.000000   0.000000  -0.000136   0.000732  -0.001156
    38  H    0.000000  -0.000000   0.000000  -0.000136   0.000727  -0.001152
    39  H    0.000000   0.000000   0.000000   0.000018  -0.000396   0.002613
    40  C   -0.000000   0.000000  -0.000000   0.000000   0.000014   0.000000
    41  H    0.000000  -0.000000   0.000000  -0.000000  -0.000000  -0.000000
    42  H    0.000000  -0.000000   0.000000  -0.000000  -0.000000  -0.000000
    43  H    0.000000   0.000000   0.000000  -0.000000  -0.000001  -0.000000
    44  Co  -0.000679   0.000129  -0.000679   0.008013   0.387366   0.004746
              13         14         15         16         17         18
     1  C    0.000178   0.000002   0.000001  -0.000029   0.000000  -0.000000
     2  C    0.000001  -0.000000  -0.000000   0.000000   0.000000   0.000000
     3  C   -0.000001   0.000000   0.000000   0.000001   0.000000   0.000000
     4  C    0.000057  -0.000000  -0.000001   0.000102   0.000000   0.000000
     5  C    0.001727   0.000001   0.000073   0.000051  -0.000000  -0.000000
     6  C   -0.004408  -0.000039   0.000066   0.000818  -0.000001   0.000003
     7  H   -0.000000  -0.000000  -0.000000   0.000000   0.000000   0.000000
     8  H    0.000002   0.000000   0.000000  -0.000010  -0.000000  -0.000000
     9  H   -0.000024   0.000000   0.000108   0.006224   0.000002  -0.000000
    10  C    0.541591  -0.048842  -0.006276  -0.034439  -0.039510   0.003981
    11  C    0.004714   0.005606  -0.000072  -0.000157  -0.000079  -0.000209
    12  C   -0.055743   0.534362  -0.037865   0.003737  -0.007916  -0.038078
    13  C    5.026359  -0.044300   0.507145   0.355480  -0.036390   0.000290
    14  C   -0.044300   5.038222  -0.037986   0.000452   0.514482   0.362249
    15  C    0.507145  -0.037986   4.899283  -0.035524   0.559622   0.003858
    16  H    0.355480   0.000452  -0.035524   0.517960   0.003682   0.000013
    17  C   -0.036390   0.514482   0.559622   0.003682   4.887672  -0.035376
    18  H    0.000290   0.362249   0.003858   0.000013  -0.035376   0.536463
    19  H   -0.035954   0.003947   0.368776  -0.003974  -0.035903  -0.000145
    20  H    0.004024  -0.037078  -0.036370  -0.000148   0.368319  -0.004193
    21  C    0.000000  -0.000000  -0.000000   0.000000   0.000000   0.000000
    22  C    0.000000   0.000000  -0.000000   0.000000  -0.000000   0.000000
    23  C    0.000000   0.000000   0.000000  -0.000000  -0.000000  -0.000000
    24  C    0.000000  -0.000000  -0.000000   0.000000   0.000000   0.000000
    25  C   -0.000000  -0.000000   0.000000  -0.000000  -0.000000   0.000000
    26  C   -0.000000   0.000000  -0.000000  -0.000000   0.000000   0.000000
    27  H    0.000000  -0.000000  -0.000000   0.000000   0.000000  -0.000000
    28  C    0.000000  -0.000000   0.000000   0.000000   0.000000   0.000000
    29  H    0.000000   0.000000   0.000000  -0.000000   0.000000  -0.000000
    30  H   -0.000000  -0.000000   0.000000  -0.000000   0.000000   0.000000
    31  H   -0.000000   0.000000   0.000000  -0.000000   0.000000   0.000000
    32  N   -0.000000  -0.000000   0.000000   0.000000   0.000000  -0.000000
    33  N   -0.000000  -0.000000   0.000000   0.000000   0.000000  -0.000000
    34  N   -0.077901   0.009128   0.005190  -0.005070  -0.000181  -0.000094
    35  N    0.009276  -0.084442  -0.000143  -0.000098   0.005435  -0.007379
    36  C   -0.000117  -0.003057   0.000009   0.000003  -0.000111   0.004238
    37  H   -0.000008   0.002689  -0.000002  -0.000000  -0.000007   0.000507
    38  H   -0.000008   0.002686  -0.000002  -0.000000  -0.000007   0.000506
    39  H    0.000006   0.000015  -0.000000  -0.000000   0.000001  -0.000031
    40  C    0.000000   0.000000  -0.000000   0.000000   0.000000  -0.000000
    41  H    0.000000   0.000000  -0.000000   0.000000  -0.000000  -0.000000
    42  H    0.000000   0.000000  -0.000000   0.000000  -0.000000  -0.000000
    43  H   -0.000000   0.000000  -0.000000   0.000000  -0.000000   0.000000
    44  Co  -0.000467  -0.000466  -0.000023   0.000055   0.000009   0.000023
              19         20         21         22         23         24
     1  C   -0.000000   0.000000   0.006171   0.007934  -0.000714   0.000178
     2  C    0.000000  -0.000000  -0.044743  -0.063375   0.007380  -0.004407
     3  C   -0.000000   0.000000  -0.005000   0.002517   0.000112   0.001727
     4  C    0.000000  -0.000000   0.000116   0.000040   0.000001   0.000057
     5  C    0.000002  -0.000000   0.000002  -0.000044  -0.000000  -0.000001
     6  C   -0.000003  -0.000000  -0.000028   0.001890   0.000001   0.000001
     7  H    0.000000  -0.000000   0.000423  -0.000159  -0.000040  -0.000024
     8  H    0.000000  -0.000000  -0.000002   0.000001  -0.000000   0.000002
     9  H   -0.000009   0.000000  -0.000000  -0.000000   0.000000  -0.000000
    10  C    0.001944   0.000912  -0.000000  -0.000007   0.000000   0.000000
    11  C    0.000003   0.000003  -0.000007  -0.012393  -0.000002   0.000000
    12  C    0.000936   0.002306   0.000000  -0.000002  -0.000000   0.000000
    13  C   -0.035954   0.004024   0.000000   0.000000   0.000000   0.000000
    14  C    0.003947  -0.037078  -0.000000   0.000000   0.000000  -0.000000
    15  C    0.368776  -0.036370  -0.000000  -0.000000   0.000000  -0.000000
    16  H   -0.003974  -0.000148   0.000000   0.000000  -0.000000   0.000000
    17  C   -0.035903   0.368319   0.000000  -0.000000  -0.000000   0.000000
    18  H   -0.000145  -0.004193   0.000000   0.000000  -0.000000   0.000000
    19  H    0.534320  -0.004606   0.000000   0.000000   0.000000  -0.000000
    20  H   -0.004606   0.538214   0.000000   0.000000   0.000000  -0.000000
    21  C    0.000000   0.000000   4.637918  -0.068456   0.514131   0.541581
    22  C    0.000000   0.000000  -0.068456   4.814736  -0.056391   0.004713
    23  C    0.000000   0.000000   0.514131  -0.056391   4.647123  -0.055737
    24  C   -0.000000  -0.000000   0.541581   0.004713  -0.055737   5.026319
    25  C   -0.000000   0.000000  -0.048846   0.005606   0.534371  -0.044299
    26  C    0.000000   0.000000  -0.006280  -0.000072  -0.037864   0.507159
    27  H   -0.000000  -0.000000  -0.034441  -0.000157   0.003738   0.355485
    28  C    0.000000   0.000000  -0.039510  -0.000079  -0.007914  -0.036392
    29  H    0.000000   0.000000   0.003981  -0.000209  -0.038077   0.000290
    30  H    0.000000   0.000000   0.001944   0.000003   0.000936  -0.035956
    31  H    0.000000   0.000000   0.000912   0.000003   0.002306   0.004024
    32  N    0.000000   0.000000   0.257486   0.341786  -0.038877  -0.077892
    33  N   -0.000000  -0.000000  -0.045932   0.307131   0.272834   0.009275
    34  N   -0.000091   0.000003   0.000000   0.000224   0.000000  -0.000000
    35  N    0.000004  -0.000101   0.000000   0.000018   0.000000  -0.000000
    36  C   -0.000000  -0.000002   0.000000   0.000014   0.000000   0.000000
    37  H   -0.000000  -0.000000  -0.000000  -0.000000  -0.000000   0.000000
    38  H   -0.000000  -0.000000  -0.000000  -0.000000  -0.000000   0.000000
    39  H   -0.000000  -0.000000  -0.000000  -0.000001  -0.000000  -0.000000
    40  C    0.000000  -0.000000   0.005731  -0.043785  -0.047478  -0.000117
    41  H   -0.000000   0.000000  -0.000136   0.000727  -0.001152  -0.000008
    42  H   -0.000000   0.000000  -0.000136   0.000733  -0.001156  -0.000008
    43  H    0.000000   0.000000   0.000018  -0.000396   0.002613   0.000006
    44  Co   0.000015  -0.000004   0.008014   0.387368   0.004746  -0.000466
              25         26         27         28         29         30
     1  C    0.000002   0.000001  -0.000029   0.000000  -0.000000  -0.000000
     2  C   -0.000039   0.000066   0.000817  -0.000001   0.000003  -0.000003
     3  C    0.000001   0.000073   0.000051  -0.000000  -0.000000   0.000002
     4  C   -0.000000  -0.000001   0.000102   0.000000   0.000000   0.000000
     5  C    0.000000   0.000000   0.000001   0.000000   0.000000  -0.000000
     6  C   -0.000000  -0.000000   0.000000   0.000000   0.000000   0.000000
     7  H    0.000000   0.000108   0.006224   0.000002  -0.000000  -0.000009
     8  H    0.000000   0.000000  -0.000010  -0.000000  -0.000000   0.000000
     9  H   -0.000000  -0.000000   0.000000   0.000000   0.000000   0.000000
    10  C   -0.000000  -0.000000   0.000000   0.000000   0.000000   0.000000
    11  C    0.000000  -0.000000   0.000000  -0.000000   0.000000   0.000000
    12  C    0.000000   0.000000  -0.000000  -0.000000  -0.000000   0.000000
    13  C   -0.000000  -0.000000   0.000000   0.000000   0.000000  -0.000000
    14  C   -0.000000   0.000000  -0.000000  -0.000000   0.000000  -0.000000
    15  C    0.000000  -0.000000  -0.000000   0.000000   0.000000   0.000000
    16  H   -0.000000  -0.000000   0.000000   0.000000  -0.000000  -0.000000
    17  C   -0.000000   0.000000   0.000000   0.000000   0.000000   0.000000
    18  H    0.000000   0.000000  -0.000000   0.000000  -0.000000   0.000000
    19  H   -0.000000   0.000000  -0.000000   0.000000   0.000000   0.000000
    20  H    0.000000   0.000000  -0.000000   0.000000   0.000000   0.000000
    21  C   -0.048846  -0.006280  -0.034441  -0.039510   0.003981   0.001944
    22  C    0.005606  -0.000072  -0.000157  -0.000079  -0.000209   0.000003
    23  C    0.534371  -0.037864   0.003738  -0.007914  -0.038077   0.000936
    24  C   -0.044299   0.507159   0.355485  -0.036392   0.000290  -0.035956
    25  C    5.038256  -0.037985   0.000452   0.514468   0.362247   0.003947
    26  C   -0.037985   4.899270  -0.035524   0.559623   0.003858   0.368774
    27  H    0.000452  -0.035524   0.517960   0.003682   0.000013  -0.003975
    28  C    0.514468   0.559623   0.003682   4.887682  -0.035375  -0.035903
    29  H    0.362247   0.003858   0.000013  -0.035375   0.536461  -0.000145
    30  H    0.003947   0.368774  -0.003975  -0.035903  -0.000145   0.534327
    31  H   -0.037076  -0.036369  -0.000148   0.368321  -0.004193  -0.004606
    32  N    0.009128   0.005190  -0.005069  -0.000181  -0.000094  -0.000091
    33  N   -0.084448  -0.000143  -0.000098   0.005435  -0.007380   0.000004
    34  N   -0.000000   0.000000   0.000000   0.000000  -0.000000   0.000000
    35  N   -0.000000   0.000000   0.000000   0.000000  -0.000000  -0.000000
    36  C    0.000000  -0.000000   0.000000   0.000000  -0.000000   0.000000
    37  H    0.000000  -0.000000   0.000000  -0.000000  -0.000000  -0.000000
    38  H    0.000000  -0.000000   0.000000  -0.000000  -0.000000  -0.000000
    39  H    0.000000  -0.000000   0.000000  -0.000000   0.000000   0.000000
    40  C   -0.003057   0.000009   0.000003  -0.000111   0.004238  -0.000000
    41  H    0.002687  -0.000002  -0.000000  -0.000007   0.000506  -0.000000
    42  H    0.002689  -0.000002  -0.000000  -0.000007   0.000507  -0.000000
    43  H    0.000015  -0.000000  -0.000000   0.000001  -0.000031  -0.000000
    44  Co  -0.000466  -0.000023   0.000055   0.000009   0.000023   0.000015
              31         32         33         34         35         36
     1  C    0.000000  -0.040045   0.001218  -0.040047   0.001218  -0.000007
     2  C   -0.000000   0.268628   0.006110   0.006220  -0.000034   0.000000
     3  C   -0.000000  -0.070190  -0.000158   0.000087   0.000000   0.000000
     4  C   -0.000000   0.004585   0.000001   0.004585   0.000001  -0.000000
     5  C    0.000000   0.000087   0.000000  -0.070191  -0.000158   0.000002
     6  C   -0.000000   0.006220  -0.000034   0.268624   0.006110  -0.000051
     7  H    0.000000  -0.004055   0.000002   0.000007  -0.000000  -0.000000
     8  H   -0.000000  -0.000095  -0.000000  -0.000095  -0.000000   0.000000
     9  H   -0.000000   0.000007  -0.000000  -0.004055   0.000002  -0.000000
    10  C    0.000000   0.000000   0.000000   0.257479  -0.045933   0.005730
    11  C    0.000000   0.000224   0.000018   0.341791   0.307130  -0.043784
    12  C    0.000000   0.000000   0.000000  -0.038874   0.272838  -0.047479
    13  C   -0.000000  -0.000000  -0.000000  -0.077901   0.009276  -0.000117
    14  C    0.000000  -0.000000  -0.000000   0.009128  -0.084442  -0.003057
    15  C    0.000000   0.000000   0.000000   0.005190  -0.000143   0.000009
    16  H   -0.000000   0.000000   0.000000  -0.005070  -0.000098   0.000003
    17  C    0.000000   0.000000   0.000000  -0.000181   0.005435  -0.000111
    18  H    0.000000  -0.000000  -0.000000  -0.000094  -0.007379   0.004238
    19  H    0.000000   0.000000  -0.000000  -0.000091   0.000004  -0.000000
    20  H    0.000000   0.000000  -0.000000   0.000003  -0.000101  -0.000002
    21  C    0.000912   0.257486  -0.045932   0.000000   0.000000   0.000000
    22  C    0.000003   0.341786   0.307131   0.000224   0.000018   0.000014
    23  C    0.002306  -0.038877   0.272834   0.000000   0.000000   0.000000
    24  C    0.004024  -0.077892   0.009275  -0.000000  -0.000000   0.000000
    25  C   -0.037076   0.009128  -0.084448  -0.000000  -0.000000   0.000000
    26  C   -0.036369   0.005190  -0.000143   0.000000   0.000000  -0.000000
    27  H   -0.000148  -0.005069  -0.000098   0.000000   0.000000   0.000000
    28  C    0.368321  -0.000181   0.005435   0.000000   0.000000   0.000000
    29  H   -0.004193  -0.000094  -0.007380  -0.000000  -0.000000  -0.000000
    30  H   -0.004606  -0.000091   0.000004   0.000000  -0.000000   0.000000
    31  H    0.538207   0.000003  -0.000101   0.000000  -0.000000  -0.000000
    32  N    0.000003   7.203548  -0.056532  -0.000065   0.000000  -0.000000
    33  N   -0.000101  -0.056532   7.050746   0.000000  -0.000000  -0.000000
    34  N    0.000000  -0.000065   0.000000   7.203589  -0.056534   0.004542
    35  N   -0.000000   0.000000  -0.000000  -0.056534   7.050725   0.300915
    36  C   -0.000000  -0.000000  -0.000000   0.004542   0.300915   5.051909
    37  H    0.000000   0.000000   0.000000  -0.000069  -0.042032   0.377428
    38  H    0.000000   0.000000   0.000000  -0.000069  -0.042036   0.377435
    39  H    0.000000  -0.000000   0.000000   0.000157  -0.032652   0.376705
    40  C   -0.000002   0.004542   0.300913  -0.000000  -0.000000   0.000000
    41  H   -0.000000  -0.000069  -0.042036   0.000000   0.000000  -0.000000
    42  H   -0.000000  -0.000069  -0.042031   0.000000   0.000000  -0.000000
    43  H   -0.000000   0.000157  -0.032653  -0.000000   0.000000  -0.000001
    44  Co  -0.000004  -0.077521  -0.054708  -0.077523  -0.054707  -0.004035
              37         38         39         40         41         42
     1  C   -0.000000  -0.000000  -0.000020  -0.000007  -0.000000  -0.000000
     2  C   -0.000000  -0.000000   0.000001  -0.000051   0.000004   0.000004
     3  C    0.000000   0.000000   0.000000   0.000002  -0.000000  -0.000000
     4  C    0.000000   0.000000  -0.000000  -0.000000   0.000000   0.000000
     5  C   -0.000000  -0.000000   0.000000   0.000000   0.000000   0.000000
     6  C    0.000004   0.000004  -0.000010   0.000000  -0.000000  -0.000000
     7  H    0.000000   0.000000   0.000000  -0.000000   0.000000   0.000000
     8  H   -0.000000  -0.000000   0.000000   0.000000  -0.000000  -0.000000
     9  H    0.000000   0.000000   0.000000  -0.000000   0.000000   0.000000
    10  C   -0.000136  -0.000136   0.000018   0.000000  -0.000000  -0.000000
    11  C    0.000732   0.000727  -0.000396   0.000014  -0.000000  -0.000000
    12  C   -0.001156  -0.001152   0.002613   0.000000  -0.000000  -0.000000
    13  C   -0.000008  -0.000008   0.000006   0.000000   0.000000   0.000000
    14  C    0.002689   0.002686   0.000015   0.000000   0.000000   0.000000
    15  C   -0.000002  -0.000002  -0.000000  -0.000000  -0.000000  -0.000000
    16  H   -0.000000  -0.000000  -0.000000   0.000000   0.000000   0.000000
    17  C   -0.000007  -0.000007   0.000001   0.000000  -0.000000  -0.000000
    18  H    0.000507   0.000506  -0.000031  -0.000000  -0.000000  -0.000000
    19  H   -0.000000  -0.000000  -0.000000   0.000000  -0.000000  -0.000000
    20  H   -0.000000  -0.000000  -0.000000  -0.000000   0.000000   0.000000
    21  C   -0.000000  -0.000000  -0.000000   0.005731  -0.000136  -0.000136
    22  C   -0.000000  -0.000000  -0.000001  -0.043785   0.000727   0.000733
    23  C   -0.000000  -0.000000  -0.000000  -0.047478  -0.001152  -0.001156
    24  C    0.000000   0.000000  -0.000000  -0.000117  -0.000008  -0.000008
    25  C    0.000000   0.000000   0.000000  -0.003057   0.002687   0.002689
    26  C   -0.000000  -0.000000  -0.000000   0.000009  -0.000002  -0.000002
    27  H    0.000000   0.000000   0.000000   0.000003  -0.000000  -0.000000
    28  C   -0.000000  -0.000000  -0.000000  -0.000111  -0.000007  -0.000007
    29  H   -0.000000  -0.000000   0.000000   0.004238   0.000506   0.000507
    30  H   -0.000000  -0.000000   0.000000  -0.000000  -0.000000  -0.000000
    31  H    0.000000   0.000000   0.000000  -0.000002  -0.000000  -0.000000
    32  N    0.000000   0.000000  -0.000000   0.004542  -0.000069  -0.000069
    33  N    0.000000   0.000000   0.000000   0.300913  -0.042036  -0.042031
    34  N   -0.000069  -0.000069   0.000157  -0.000000   0.000000   0.000000
    35  N   -0.042032  -0.042036  -0.032652  -0.000000   0.000000   0.000000
    36  C    0.377428   0.377435   0.376705   0.000000  -0.000000  -0.000000
    37  H    0.524877  -0.040267  -0.025610  -0.000000  -0.000000   0.000000
    38  H   -0.040267   0.524881  -0.025621  -0.000000   0.000000  -0.000000
    39  H   -0.025610  -0.025621   0.479696  -0.000001   0.000000   0.000000
    40  C   -0.000000  -0.000000  -0.000001   5.051906   0.377435   0.377429
    41  H   -0.000000   0.000000   0.000000   0.377435   0.524881  -0.040267
    42  H    0.000000  -0.000000   0.000000   0.377429  -0.040267   0.524876
    43  H    0.000000   0.000000  -0.000022   0.376704  -0.025621  -0.025609
    44  Co   0.001077   0.001080   0.008001  -0.004035   0.001081   0.001076
              43         44
     1  C   -0.000020   0.255535
     2  C   -0.000010  -0.059870
     3  C    0.000000   0.003920
     4  C   -0.000000   0.003487
     5  C    0.000000   0.003920
     6  C    0.000001  -0.059869
     7  H    0.000000  -0.000679
     8  H    0.000000   0.000129
     9  H    0.000000  -0.000679
    10  C   -0.000000   0.008013
    11  C   -0.000001   0.387366
    12  C   -0.000000   0.004746
    13  C   -0.000000  -0.000467
    14  C    0.000000  -0.000466
    15  C   -0.000000  -0.000023
    16  H    0.000000   0.000055
    17  C   -0.000000   0.000009
    18  H    0.000000   0.000023
    19  H    0.000000   0.000015
    20  H    0.000000  -0.000004
    21  C    0.000018   0.008014
    22  C   -0.000396   0.387368
    23  C    0.002613   0.004746
    24  C    0.000006  -0.000466
    25  C    0.000015  -0.000466
    26  C   -0.000000  -0.000023
    27  H   -0.000000   0.000055
    28  C    0.000001   0.000009
    29  H   -0.000031   0.000023
    30  H   -0.000000   0.000015
    31  H   -0.000000  -0.000004
    32  N    0.000157  -0.077521
    33  N   -0.032653  -0.054708
    34  N   -0.000000  -0.077523
    35  N    0.000000  -0.054707
    36  C   -0.000001  -0.004035
    37  H    0.000000   0.001077
    38  H    0.000000   0.001080
    39  H   -0.000022   0.008001
    40  C    0.376704  -0.004035
    41  H   -0.025621   0.001081
    42  H   -0.025609   0.001076
    43  H    0.479698   0.008001
    44  Co   0.008001  16.340835
          Atomic-Atomic Spin Densities.
               1          2          3          4          5          6
     1  C   -0.375144  -0.006970   0.005544   0.007962   0.005544  -0.006970
     2  C   -0.006970   0.087478   0.003224  -0.002571   0.001357   0.000952
     3  C    0.005544   0.003224  -0.075572  -0.005049   0.000072   0.001357
     4  C    0.007962  -0.002571  -0.005049   0.088908  -0.005049  -0.002571
     5  C    0.005544   0.001357   0.000072  -0.005049  -0.075573   0.003224
     6  C   -0.006970   0.000952   0.001357  -0.002571   0.003224   0.087471
     7  H   -0.000947   0.000455   0.004482   0.001806  -0.000040  -0.000097
     8  H   -0.000137   0.000010  -0.000027   0.000339  -0.000027   0.000010
     9  H   -0.000947  -0.000097  -0.000040   0.001806   0.004482   0.000455
    10  C   -0.000310  -0.000019   0.000001   0.000018   0.000410   0.000201
    11  C    0.006375  -0.000818   0.000005   0.000024  -0.000169  -0.006146
    12  C    0.000076   0.000000   0.000000  -0.000000  -0.000008   0.000007
    13  C    0.000015   0.000000  -0.000000   0.000003  -0.000284  -0.000395
    14  C    0.000000   0.000000  -0.000000  -0.000000  -0.000001  -0.000020
    15  C   -0.000000   0.000000   0.000000  -0.000000   0.000002   0.000007
    16  H   -0.000002  -0.000000  -0.000000   0.000003   0.000086   0.000062
    17  C   -0.000000  -0.000000   0.000000  -0.000000   0.000000   0.000002
    18  H    0.000000  -0.000000   0.000000   0.000000   0.000000   0.000000
    19  H    0.000000   0.000000  -0.000000  -0.000000   0.000000   0.000000
    20  H   -0.000000   0.000000  -0.000000  -0.000000  -0.000000  -0.000000
    21  C   -0.000310   0.000202   0.000410   0.000018   0.000001  -0.000019
    22  C    0.006375  -0.006147  -0.000169   0.000024   0.000005  -0.000818
    23  C    0.000076   0.000007  -0.000008  -0.000000   0.000000   0.000000
    24  C    0.000015  -0.000395  -0.000284   0.000003  -0.000000   0.000000
    25  C    0.000000  -0.000020  -0.000001  -0.000000  -0.000000   0.000000
    26  C   -0.000000   0.000007   0.000002  -0.000000   0.000000   0.000000
    27  H   -0.000002   0.000062   0.000086   0.000003  -0.000000  -0.000000
    28  C   -0.000000   0.000002   0.000000  -0.000000   0.000000  -0.000000
    29  H    0.000000   0.000000   0.000000   0.000000   0.000000  -0.000000
    30  H    0.000000   0.000000   0.000000  -0.000000  -0.000000   0.000000
    31  H   -0.000000  -0.000000  -0.000000  -0.000000  -0.000000   0.000000
    32  N    0.002475   0.012268   0.004643   0.000108   0.000045  -0.000147
    33  N   -0.000665   0.000355  -0.000015  -0.000000  -0.000000   0.000003
    34  N    0.002476  -0.000147   0.000045   0.000108   0.004644   0.012269
    35  N   -0.000665   0.000003  -0.000000  -0.000000  -0.000015   0.000355
    36  C   -0.000020   0.000000  -0.000000  -0.000000  -0.000000  -0.000004
    37  H    0.000001  -0.000000   0.000000   0.000000   0.000000  -0.000001
    38  H    0.000001  -0.000000   0.000000   0.000000   0.000000  -0.000001
    39  H    0.000014  -0.000000   0.000000   0.000000   0.000000   0.000000
    40  C   -0.000020  -0.000004  -0.000000  -0.000000  -0.000000   0.000000
    41  H    0.000001  -0.000001   0.000000   0.000000   0.000000  -0.000000
    42  H    0.000001  -0.000001   0.000000   0.000000   0.000000  -0.000000
    43  H    0.000014   0.000000   0.000000   0.000000   0.000000  -0.000000
    44  Co   0.019308  -0.010419  -0.001839   0.000996  -0.001839  -0.010419
               7          8          9         10         11         12
     1  C   -0.000947  -0.000137  -0.000947  -0.000310   0.006375   0.000076
     2  C    0.000455   0.000010  -0.000097  -0.000019  -0.000818   0.000000
     3  C    0.004482  -0.000027  -0.000040   0.000001   0.000005   0.000000
     4  C    0.001806   0.000339   0.001806   0.000018   0.000024  -0.000000
     5  C   -0.000040  -0.000027   0.004482   0.000410  -0.000169  -0.000008
     6  C   -0.000097   0.000010   0.000455   0.000201  -0.006146   0.000007
     7  H   -0.008714  -0.000136  -0.000024  -0.000000   0.000000  -0.000000
     8  H   -0.000136  -0.004213  -0.000136  -0.000000   0.000000   0.000000
     9  H   -0.000024  -0.000136  -0.008714  -0.000131   0.000016   0.000001
    10  C   -0.000000  -0.000000  -0.000131  -0.004754   0.001666  -0.002016
    11  C    0.000000   0.000000   0.000016   0.001666   0.203887  -0.002169
    12  C   -0.000000   0.000000   0.000001  -0.002016  -0.002169  -0.028609
    13  C    0.000000   0.000000   0.000175   0.004442   0.000271   0.000618
    14  C    0.000000   0.000000   0.000001   0.000919   0.000562  -0.000240
    15  C    0.000000   0.000000   0.000006  -0.000774  -0.000027   0.000217
    16  H   -0.000000  -0.000000  -0.000179  -0.000183   0.000000  -0.000006
    17  C   -0.000000  -0.000000  -0.000000   0.000130  -0.000014  -0.000223
    18  H   -0.000000  -0.000000  -0.000000  -0.000011  -0.000003  -0.000088
    19  H   -0.000000  -0.000000  -0.000000   0.000002  -0.000000  -0.000008
    20  H    0.000000   0.000000   0.000000  -0.000004   0.000000   0.000014
    21  C   -0.000131  -0.000000  -0.000000  -0.000000   0.000001  -0.000000
    22  C    0.000016   0.000000   0.000000   0.000001   0.001596   0.000000
    23  C    0.000001   0.000000  -0.000000  -0.000000   0.000000   0.000000
    24  C    0.000175   0.000000   0.000000   0.000000   0.000000   0.000000
    25  C    0.000001   0.000000   0.000000   0.000000   0.000000   0.000000
    26  C    0.000006   0.000000   0.000000  -0.000000  -0.000000   0.000000
    27  H   -0.000179  -0.000000  -0.000000  -0.000000  -0.000000  -0.000000
    28  C   -0.000000  -0.000000  -0.000000  -0.000000  -0.000000   0.000000
    29  H   -0.000000  -0.000000  -0.000000   0.000000   0.000000  -0.000000
    30  H   -0.000000  -0.000000  -0.000000  -0.000000  -0.000000   0.000000
    31  H    0.000000   0.000000   0.000000   0.000000  -0.000000  -0.000000
    32  N   -0.000686  -0.000002  -0.000002  -0.000000  -0.000051  -0.000000
    33  N    0.000003   0.000000   0.000000   0.000000  -0.000003   0.000000
    34  N   -0.000002  -0.000002  -0.000686  -0.001252  -0.032102   0.001531
    35  N    0.000000   0.000000   0.000003  -0.000746  -0.041580   0.008453
    36  C    0.000000   0.000000   0.000000  -0.000031   0.001078   0.000376
    37  H   -0.000000  -0.000000  -0.000000   0.000003   0.000431  -0.000157
    38  H   -0.000000  -0.000000  -0.000000   0.000003   0.000432  -0.000157
    39  H   -0.000000  -0.000000  -0.000000   0.000001  -0.000747  -0.000063
    40  C    0.000000   0.000000   0.000000   0.000000  -0.000000  -0.000000
    41  H   -0.000000  -0.000000  -0.000000   0.000000   0.000000  -0.000000
    42  H   -0.000000  -0.000000  -0.000000   0.000000   0.000000  -0.000000
    43  H   -0.000000  -0.000000  -0.000000  -0.000000  -0.000000   0.000000
    44  Co   0.000385   0.000034   0.000385   0.001421   0.059779   0.000078
              13         14         15         16         17         18
     1  C    0.000015   0.000000  -0.000000  -0.000002  -0.000000   0.000000
     2  C    0.000000   0.000000   0.000000  -0.000000  -0.000000  -0.000000
     3  C   -0.000000  -0.000000   0.000000  -0.000000   0.000000   0.000000
     4  C    0.000003  -0.000000  -0.000000   0.000003  -0.000000   0.000000
     5  C   -0.000284  -0.000001   0.000002   0.000086   0.000000   0.000000
     6  C   -0.000395  -0.000020   0.000007   0.000062   0.000002   0.000000
     7  H    0.000000   0.000000   0.000000  -0.000000  -0.000000  -0.000000
     8  H    0.000000   0.000000   0.000000  -0.000000  -0.000000  -0.000000
     9  H    0.000175   0.000001   0.000006  -0.000179  -0.000000  -0.000000
    10  C    0.004442   0.000919  -0.000774  -0.000183   0.000130  -0.000011
    11  C    0.000271   0.000562  -0.000027   0.000000  -0.000014  -0.000003
    12  C    0.000618  -0.000240   0.000217  -0.000006  -0.000223  -0.000088
    13  C    0.019623   0.000969  -0.009491   0.000249  -0.001150  -0.000005
    14  C    0.000969   0.052059  -0.002126  -0.000001  -0.006544   0.000087
    15  C   -0.009491  -0.002126   0.030441   0.000007   0.005891  -0.000003
[...]
    41 H(1)   Bbb    -0.0026    -1.364    -0.487    -0.455 -0.6491  0.7083 -0.2773
              Bcc     0.0066     3.506     1.251     1.170  0.7603  0.6161 -0.2059
 
              Baa    -0.0040    -2.142    -0.764    -0.714  0.0251 -0.3445  0.9385
    42 H(1)   Bbb    -0.0026    -1.364    -0.487    -0.455 -0.6491  0.7083  0.2774
              Bcc     0.0066     3.506     1.251     1.169  0.7603  0.6161  0.2058
 
              Baa    -0.0078    -4.177    -1.490    -1.393  0.0002 -0.0003  1.0000
    43 H(1)   Bbb    -0.0067    -3.574    -1.275    -1.192  0.7489 -0.6626 -0.0004
              Bcc     0.0145     7.751     2.766     2.585  0.6626  0.7489  0.0001
 
              Baa    -0.8335  -105.260   -37.559   -35.111  1.0000  0.0000  0.0000
    44 Co(59) Bbb    -0.0763    -9.640    -3.440    -3.215 -0.0000  1.0000  0.0001
              Bcc     0.9099   114.899    40.999    38.326 -0.0000 -0.0001  1.0000
 

 ---------------------------------------------------------------------------------

   1 Symmetry operations used in ECPInt.
 ECPInt:  NShTT=   11781 NPrTT=   71406 LenC2=    9520 LenP2D=   32015.
 LDataN:  DoStor=T MaxTD1= 7 Len=  274
 Calling FoFJK, ICntrl=      2127 FMM=F ISym2X=0 I1Cent= 0 IOpClX= 1 NMat=1 NMatS=1 NMatT=0.
 -------------------------------------------------------------------
 Center     Atomic                   Forces (Hartrees/Bohr)
 Number     Number              X              Y              Z
 -------------------------------------------------------------------
      1        6          -0.000016302   -0.069755402   -0.000003936
      2        6           0.052295387    0.032281222    0.000004593
      3        6          -0.004275637    0.001082261    0.000000481
      4        6           0.000008256    0.002197119   -0.000001386
      5        6           0.004263429    0.001094405    0.000000323
      6        6          -0.052265955    0.032264156    0.000003631
      7        1          -0.000681023    0.004740941   -0.000000983
      8        1          -0.000000281   -0.000749554   -0.000000094
      9        1           0.000682140    0.004740851   -0.000001076
     10        6          -0.007052836   -0.003865325    0.000000126
     11        6           0.000800654    0.003699450   -0.000014226
     12        6           0.008935356    0.004083736   -0.000000602
     13        6           0.008433334    0.002205442   -0.000001196
     14        6           0.002588898    0.005272106   -0.000000481
     15        6          -0.008847146    0.005154665    0.000000664
     16        1           0.000625793   -0.000177172   -0.000000360
     17        6          -0.000925732   -0.009666225   -0.000000050
     18        1           0.000947641    0.000316386    0.000000165
     19        1           0.000133909   -0.000366030   -0.000000050
     20        1           0.000844869    0.000166124    0.000000112
     21        6           0.007004321   -0.003808596   -0.000000702
     22        6          -0.000795036    0.003700755   -0.000015962
     23        6          -0.008876210    0.004082568   -0.000000952
     24        6          -0.008394676    0.002149219   -0.000000852
     25        6          -0.002642184    0.005273083   -0.000000936
     26        6           0.008829220    0.005170281    0.000000245
     27        1          -0.000623120   -0.000162601   -0.000000167
     28        6           0.000947548   -0.009683740    0.000000184
     29        1          -0.000943002    0.000321788   -0.000000034
     30        1          -0.000129321   -0.000372182   -0.000000099
     31        1          -0.000850767    0.000165554    0.000000149
     32        7          -0.016243609   -0.045865463    0.000007149
     33        7           0.019796786    0.016874798    0.000008900
     34        7           0.016237661   -0.045841581    0.000004692
     35        7          -0.019815752    0.016881354    0.000007466
     36        6           0.000128669   -0.008237835   -0.000000183
     37        1           0.000713271    0.001161728    0.000641142
     38        1           0.000712574    0.001162015   -0.000641797
     39        1           0.000707087    0.001715739    0.000000646
     40        6          -0.000122245   -0.008232260   -0.000000184
     41        1          -0.000713163    0.001162558   -0.000640803
     42        1          -0.000714198    0.001161606    0.000639896
     43        1          -0.000708035    0.001714660    0.000000727
     44       27          -0.000000572    0.044787396    0.000005820
 -------------------------------------------------------------------
 Cartesian Forces:  Max     0.069755402 RMS     0.012828214

 GradGradGradGradGradGradGradGradGradGradGradGradGradGradGradGradGradGrad
 Berny optimization.
 Search for a local minimum.
 Step number   1 out of a maximum of    2
 All quantities printed in internal units (Hartrees-Bohrs-Radians)
 Second derivative matrix not updated -- first step.
 ITU=  0
     Eigenvalues ---    0.00055   0.00057   0.00198   0.00245   0.00245
     Eigenvalues ---    0.00385   0.00442   0.00611   0.00658   0.00669
     Eigenvalues ---    0.00671   0.00818   0.00843   0.01319   0.01568
     Eigenvalues ---    0.01805   0.02019   0.02039   0.02528   0.02534
     Eigenvalues ---    0.03055   0.03117   0.04094   0.04196   0.04420
     Eigenvalues ---    0.04494   0.04674   0.05371   0.05525   0.06153
     Eigenvalues ---    0.06209   0.06905   0.06933   0.07038   0.07059
     Eigenvalues ---    0.07062   0.07286   0.07671   0.07740   0.09582
     Eigenvalues ---    0.09927   0.10157   0.10361   0.11503   0.11904
     Eigenvalues ---    0.11967   0.12167   0.12267   0.12808   0.13358
     Eigenvalues ---    0.13364   0.13438   0.13655   0.14748   0.15383
     Eigenvalues ---    0.15583   0.15869   0.19429   0.20023   0.20071
     Eigenvalues ---    0.21045   0.21975   0.24059   0.24759   0.28610
     Eigenvalues ---    0.29532   0.29829   0.30338   0.30804   0.31569
     Eigenvalues ---    0.31911   0.34696   0.35604   0.36589   0.37471
     Eigenvalues ---    0.37727   0.41188   0.41763   0.44572   0.47220
     Eigenvalues ---    0.48426   0.48472   0.49235   0.50961   0.51977
     Eigenvalues ---    0.53621   0.54252   0.54794   0.62699   0.63039
     Eigenvalues ---    0.68820   0.71267   0.72704   0.74041   0.86632
     Eigenvalues ---    0.90391   0.91031   0.91292   0.93175   0.94430
     Eigenvalues ---    0.95301   0.96969   0.99979   1.04126   1.12399
     Eigenvalues ---    1.15743   1.15815   1.18477   1.20696   1.24422
     Eigenvalues ---    1.31159   1.37748   1.37961   1.45640   1.47106
     Eigenvalues ---    1.49623   1.50899   1.53777   1.60743   1.64308
     Eigenvalues ---    1.66004   1.67059   1.77711   1.78943   1.84904
     Eigenvalues ---    1.88550
 Quadratic step=4.347D-01 exceeds max=3.000D-01 adjusted using Lamda=-1.149D-02.
 Angle between NR and scaled steps=  21.07 degrees.
 Angle between quadratic step and forces=  52.06 degrees.
 Linear search not attempted -- first point.
 B after Tr=    -0.000000   -0.001424   -0.000001
         Rot=    1.000000   -0.000001   -0.000000   -0.000000 Ang=  -0.00 deg.
 Variable       Old X    -DE/DX   Delta X   Delta X   Delta X     New X
                                 (Linear)    (Quad)   (Total)
    X1        0.00002  -0.00002   0.00000  -0.00001  -0.00001   0.00000
    Y1        1.51221  -0.06976   0.00000  -0.14345  -0.14487   1.36734
    Z1        0.00021  -0.00000   0.00000   0.00000   0.00000   0.00021
    X2       -2.42077   0.05230   0.00000   0.07951   0.07951  -2.34126
    Y2        2.56899   0.03228   0.00000  -0.02465  -0.02607   2.54291
    Z2        0.00004   0.00000   0.00000   0.00004   0.00004   0.00009
    X3       -2.35466  -0.00428   0.00000   0.02502   0.02502  -2.32963
    Y3        5.20955   0.00108   0.00000  -0.00977  -0.01119   5.19836
    Z3       -0.00003   0.00000   0.00000   0.00003   0.00003   0.00001
    X4       -0.00000   0.00001   0.00000   0.00000   0.00000   0.00000
    Y4        6.43293   0.00220   0.00000   0.01383   0.01241   6.44534
    Z4        0.00002  -0.00000   0.00000   0.00000   0.00001   0.00002
    X5        2.35468   0.00426   0.00000  -0.02503  -0.02503   2.32964
    Y5        5.20954   0.00109   0.00000  -0.00976  -0.01118   5.19836
    Z5        0.00006   0.00000   0.00000   0.00002   0.00002   0.00008
    X6        2.42075  -0.05227   0.00000  -0.07950  -0.07950   2.34125
    Y6        2.56900   0.03226   0.00000  -0.02466  -0.02608   2.54292
    Z6        0.00012   0.00000   0.00000   0.00003   0.00003   0.00015
    X7       -4.07906  -0.00068   0.00000   0.02328   0.02328  -4.05578
    Y7        6.30707   0.00474   0.00000   0.00477   0.00335   6.31042
    Z7       -0.00008  -0.00000   0.00000   0.00000   0.00001  -0.00007
    X8        0.00000  -0.00000   0.00000  -0.00000  -0.00000   0.00000
    Y8        8.48823  -0.00075   0.00000   0.01135   0.00993   8.49816
    Z8       -0.00002  -0.00000   0.00000  -0.00002  -0.00002  -0.00003
    X9        4.07907   0.00068   0.00000  -0.02329  -0.02329   4.05579
    Y9        6.30707   0.00474   0.00000   0.00478   0.00336   6.31043
    Z9        0.00009  -0.00000   0.00000  -0.00002  -0.00001   0.00008
   X10        6.97725  -0.00705   0.00000  -0.03966  -0.03966   6.93759
   Y10        1.09859  -0.00387   0.00000  -0.01166  -0.01308   1.08551
   Z10       -0.00006   0.00000   0.00000  -0.00000  -0.00000  -0.00006
   X11        3.62781   0.00080   0.00000  -0.04301  -0.04301   3.58480
   Y11       -1.72003   0.00370   0.00000   0.00502   0.00360  -1.71643
   Z11        0.00026  -0.00001   0.00000  -0.00006  -0.00007   0.00019
   X12        7.91584   0.00894   0.00000  -0.02356  -0.02356   7.89228
   Y12       -1.40391   0.00408   0.00000   0.00720   0.00578  -1.39813
   Z12       -0.00018  -0.00000   0.00000   0.00000   0.00000  -0.00018
   X13        8.59839   0.00843   0.00000  -0.03205  -0.03205   8.56634
   Y13        3.14617   0.00221   0.00000  -0.00341  -0.00484   3.14134
   Z13       -0.00011  -0.00000   0.00000  -0.00001  -0.00001  -0.00012
   X14       10.49251   0.00259   0.00000  -0.02095  -0.02095  10.47156
   Y14       -1.88976   0.00527   0.00000   0.00624   0.00482  -1.88495
   Z14       -0.00037  -0.00000   0.00000   0.00001   0.00001  -0.00037
   X15       11.21086  -0.00885   0.00000  -0.04257  -0.04257  11.16829
   Y15        2.65421   0.00515   0.00000  -0.00091  -0.00234   2.65187
   Z15       -0.00032   0.00000   0.00000  -0.00001  -0.00000  -0.00033
   X16        7.89620   0.00063   0.00000  -0.02199  -0.02199   7.87421
   Y16        5.06976  -0.00018   0.00000  -0.00108  -0.00251   5.06725
   Z16        0.00001  -0.00000   0.00000  -0.00002  -0.00002  -0.00001
   X17       12.12996  -0.00093   0.00000  -0.02698  -0.02698  12.10298
   Y17        0.19887  -0.00967   0.00000  -0.00572  -0.00714   0.19173
   Z17       -0.00046  -0.00000   0.00000   0.00001   0.00000  -0.00045
   X18       11.20236   0.00095   0.00000  -0.00887  -0.00887  11.19349
   Y18       -3.81422   0.00032   0.00000   0.01019   0.00876  -3.80545
   Z18       -0.00045   0.00000   0.00000   0.00002   0.00001  -0.00044
   X19       12.51552   0.00013   0.00000  -0.03968  -0.03968  12.47584
   Y19        4.23826  -0.00037   0.00000  -0.00284  -0.00426   4.23399
   Z19       -0.00037  -0.00000   0.00000  -0.00001  -0.00001  -0.00038
   X20       14.15348   0.00084   0.00000  -0.02267  -0.02267  14.13081
   Y20       -0.13105   0.00017   0.00000   0.00202   0.00060  -0.13046
   Z20       -0.00062   0.00000   0.00000   0.00001   0.00001  -0.00061
   X21       -6.97720   0.00700   0.00000   0.03963   0.03963  -6.93757
   Y21        1.09854  -0.00381   0.00000  -0.01162  -0.01304   1.08550
   Z21       -0.00008  -0.00000   0.00000   0.00001   0.00001  -0.00007
   X22       -3.62780  -0.00080   0.00000   0.04301   0.04301  -3.58479
   Y22       -1.72004   0.00370   0.00000   0.00502   0.00359  -1.71645
   Z22        0.00020  -0.00002   0.00000  -0.00006  -0.00006   0.00013
   X23       -7.91587  -0.00888   0.00000   0.02359   0.02359  -7.89228
   Y23       -1.40392   0.00408   0.00000   0.00721   0.00579  -1.39814
   Z23       -0.00013  -0.00000   0.00000   0.00000   0.00000  -0.00013
   X24       -8.59841  -0.00839   0.00000   0.03208   0.03208  -8.56633
   Y24        3.14620   0.00215   0.00000  -0.00345  -0.00487   3.14133
   Z24       -0.00011  -0.00000   0.00000  -0.00001  -0.00001  -0.00011
   X25      -10.49246  -0.00264   0.00000   0.02091   0.02091 -10.47155
   Y25       -1.88978   0.00527   0.00000   0.00624   0.00482  -1.88496
   Z25       -0.00019  -0.00000   0.00000  -0.00000  -0.00001  -0.00020
   X26      -11.21085   0.00883   0.00000   0.04257   0.04257 -11.16828
   Y26        2.65418   0.00517   0.00000  -0.00091  -0.00234   2.65184
   Z26       -0.00019   0.00000   0.00000  -0.00001  -0.00001  -0.00020
   X27       -7.89620  -0.00062   0.00000   0.02202   0.02202  -7.87418
   Y27        5.06973  -0.00016   0.00000  -0.00107  -0.00250   5.06724
   Z27       -0.00005  -0.00000   0.00000  -0.00001  -0.00001  -0.00005
   X28      -12.12997   0.00095   0.00000   0.02699   0.02699 -12.10298
   Y28        0.19887  -0.00968   0.00000  -0.00573  -0.00716   0.19171
   Z28       -0.00024   0.00000   0.00000  -0.00000  -0.00000  -0.00024
   X29      -11.20235  -0.00094   0.00000   0.00886   0.00886 -11.19349
   Y29       -3.81423   0.00032   0.00000   0.01020   0.00877  -3.80546
   Z29       -0.00019  -0.00000   0.00000  -0.00000  -0.00001  -0.00020
   X30      -12.51552  -0.00013   0.00000   0.03970   0.03970 -12.47583
   Y30        4.23825  -0.00037   0.00000  -0.00286  -0.00428   4.23397
   Z30       -0.00021  -0.00000   0.00000  -0.00001  -0.00001  -0.00021
   X31      -14.15347  -0.00085   0.00000   0.02266   0.02266 -14.13081
   Y31       -0.13108   0.00017   0.00000   0.00202   0.00059  -0.13049
   Z31       -0.00029   0.00000   0.00000   0.00000   0.00000  -0.00029
   X32       -4.35917  -0.01624   0.00000   0.03604   0.03604  -4.32312
   Y32        0.88832  -0.04587   0.00000  -0.05012  -0.05154   0.83678
   Z32        0.00002   0.00001   0.00000   0.00003   0.00003   0.00005
   X33       -5.89640   0.01980   0.00000   0.05545   0.05545  -5.84096
   Y33       -3.03231   0.01687   0.00000   0.02713   0.02571  -3.00660
   Z33       -0.00009   0.00001   0.00000   0.00001   0.00001  -0.00008
   X34        4.35918   0.01624   0.00000  -0.03605  -0.03605   4.32313
   Y34        0.88830  -0.04584   0.00000  -0.05011  -0.05153   0.83678
   Z34        0.00014   0.00000   0.00000   0.00001   0.00001   0.00015
   X35        5.89644  -0.01982   0.00000  -0.05545  -0.05545   5.84098
   Y35       -3.03231   0.01688   0.00000   0.02714   0.02572  -3.00659
   Z35       -0.00006   0.00001   0.00000   0.00000  -0.00000  -0.00007
   X36        6.05057   0.00013   0.00000  -0.02687  -0.02687   6.02370
   Y36       -5.72517  -0.00824   0.00000   0.01567   0.01425  -5.71092
   Z36        0.00001  -0.00000   0.00000   0.00001   0.00000   0.00002
   X37        7.02744   0.00071   0.00000  -0.00829  -0.00829   7.01915
   Y37       -6.42938   0.00116   0.00000   0.03663   0.03521  -6.39417
   Z37       -1.68837   0.00064   0.00000   0.00334   0.00333  -1.68504
   X38        7.02656   0.00071   0.00000  -0.00831  -0.00831   7.01825
   Y38       -6.42940   0.00116   0.00000   0.03663   0.03520  -6.39420
   Z38        1.68891  -0.00064   0.00000  -0.00330  -0.00331   1.68560
   X39        4.13399   0.00071   0.00000  -0.01864  -0.01864   4.11535
   Y39       -6.49942   0.00172   0.00000   0.00673   0.00530  -6.49411
   Z39       -0.00052   0.00000   0.00000   0.00001  -0.00000  -0.00052
   X40       -6.05056  -0.00012   0.00000   0.02688   0.02688  -6.02368
   Y40       -5.72518  -0.00823   0.00000   0.01568   0.01425  -5.71093
   Z40        0.00008  -0.00000   0.00000   0.00002   0.00001   0.00009
   X41       -7.02643  -0.00071   0.00000   0.00831   0.00831  -7.01812
   Y41       -6.42938   0.00116   0.00000   0.03664   0.03521  -6.39416
   Z41        1.68906  -0.00064   0.00000  -0.00329  -0.00330   1.68576
   X42       -7.02755  -0.00071   0.00000   0.00829   0.00829  -7.01926
   Y42       -6.42943   0.00116   0.00000   0.03664   0.03522  -6.39422
   Z42       -1.68821   0.00064   0.00000   0.00334   0.00334  -1.68487
   X43       -4.13397  -0.00071   0.00000   0.01864   0.01864  -4.11533
   Y43       -6.49942   0.00171   0.00000   0.00671   0.00529  -6.49413
   Z43       -0.00058   0.00000   0.00000   0.00001   0.00000  -0.00057
   X44        0.00001  -0.00000   0.00000  -0.00000  -0.00001   0.00001
   Y44       -2.37119   0.04479   0.00000   0.08472   0.08330  -2.28789
   Z44        0.00019   0.00001   0.00000  -0.00005  -0.00006   0.00013
         Item               Value     Threshold  Converged?
 Maximum Force            0.069755     0.000450     NO 
 RMS     Force            0.012828     0.000300     NO 
 Maximum Displacement     0.144874     0.001800     NO 
 RMS     Displacement     0.026136     0.001200     NO 
 Predicted change in Energy=-1.413050D-02
 GradGradGradGradGradGradGradGradGradGradGradGradGradGradGradGradGradGrad

 Unable to Open any file for archive entry.
 1\1\GINC-X11P1N5\Force\UPBE1PBE\GenECP\C22H17Co1N4(3)\MAYUMIAO\17-Jul-
 2024\0\\# pbe1pbe em=gd3bj genecp g09default scf=(xqc,maxcycle=64) for
 ce guess=read nosymm\\Title Card\\0,3\C,0.00000806,0.80022715,0.000111
 46\C,-1.28101544,1.35944908,0.00002377\C,-1.24603109,2.75677544,-0.000
 01407\C,-0.00000162,3.40416068,0.00000803\C,1.24604039,2.75677107,0.00
 003324\C,1.28100537,1.35945675,0.00006226\H,-2.15854727,3.33756028,-0.
 00004126\H,0.00000155,4.49178044,-0.00000832\H,2.15855226,3.3375587,0.
 00004794\C,3.69220099,0.58134728,-0.00003005\C,1.91975515,-0.91020252,
 0.00013672\C,4.18888226,-0.74291737,-0.00009534\C,4.55006977,1.6648822
 1,-0.00005981\C,5.5523987,-1.00001907,-0.00019785\C,5.93253334,1.40454
 656,-0.0001712\H,4.17848909,2.68279909,0.00000649\C,6.41889971,0.10523
 707,-0.00024291\H,5.92803551,-2.01839604,-0.00024047\H,6.62292585,2.24
 278988,-0.00019658\H,7.48970051,-0.06935115,-0.00032846\C,-3.69217746,
 0.58131994,-0.00004193\C,-1.91974973,-0.91020747,0.00010351\C,-4.18889
 954,-0.74292355,-0.00006962\C,-4.55008451,1.66489818,-0.00005563\C,-5.
 55237031,-1.00002664,-0.00010009\C,-5.93252586,1.4045332,-0.00010091\H
 ,-4.17849065,2.6827873,-0.00002428\C,-6.41890482,0.10523527,-0.0001245
 3\H,-5.92802977,-2.01840576,-0.00010148\H,-6.62293025,2.2427834,-0.000
 10899\H,-7.48969385,-0.06936299,-0.00015394\N,-2.30677169,0.47007878,0
 .00001274\N,-3.12024312,-1.60463032,-0.00004727\N,2.30677719,0.4700700
 3,0.000075\N,3.12025967,-1.6046293,-0.0000343\C,3.20182399,-3.0296292,
 0.00000759\H,3.71876297,-3.40228021,-0.89344557\H,3.71829751,-3.402293
 33,0.89373025\H,2.18761332,-3.4393444,-0.00027466\C,-3.20181894,-3.029
 63707,0.00004375\H,-3.71822416,-3.4022802,0.89381287\H,-3.71881833,-3.
 40230984,-0.89336172\H,-2.18760461,-3.43934645,-0.00030453\Co,0.000005
 51,-1.2547776,0.00009999\\Version=ES64L-G16RevC.01\HF=-1212.1148154\S2
 =2.317655\S2-1=0.\S2A=2.007853\RMSD=2.844e-09\RMSF=1.283e-02\Dipole=-0
 .000026,-1.348244,-0.0000569\Quadrupole=8.4039799,10.9370938,-19.34107
 37,0.0001837,-0.0003272,-0.0000049\PG=C01 [X(C22H17Co1N4)]\\@
 The archive entry for this job was punched.


 AND HERE I AM, FOR ALL MY LORE,
 THE WRETCHED FOOL I WAS BEFORE.
 CALLED MASTER OF ARTS, AND DOCTOR TO BOOT,
 FOR TEN YEARS ALMOST I CONFUTE
 AND UP AND DOWN, WHEREVER IT GOES
 I DRAG MY STUDENTS BY THE NOSE --
 AND SEE THAT FOR ALL OUR SCIENCE AND ART
 WE CAN KNOW NOTHING.  IT BURNS MY HEART.

                                       -- FAUST
 Job cpu time:       0 days  0 hours 39 minutes 18.7 seconds.
 Elapsed time:       0 days  0 hours  0 minutes 42.9 seconds.
 File lengths (MBytes):  RWF=    184 Int=      0 D2E=      0 Chk=     72 Scr=      1
 Normal termination of Gaussian 16 at Wed Jul 17 21:14:48 2024.
