 Entering Gaussian System, Link 0=g16
 Input=JOBS/28_A.gjf
 Output=JOBS/28_A.log
 Initial command:
 /data/app/gaussian/C01-avx2//g16/l1.exe "/tmp/Gau-2084825.inp" -scrdir="/tmp/"
 Entering Link 1 = /data/app/gaussian/C01-avx2//g16/l1.exe PID=   2084826.
  
 Copyright (c) 1988-2019, Gaussian, Inc.  All Rights Reserved.
  
 This is part of the Gaussian(R) 16 program.  It is based on
 the Gaussian(R) 09 system (copyright 2009, Gaussian, Inc.),
 the Gaussian(R) 03 system (copyright 2003, Gaussian, Inc.),
 the Gaussian(R) 98 system (copyright 1998, Gaussian, Inc.),
 the Gaussian(R) 94 system (copyright 1995, Gaussian, Inc.),
 the Gaussian 92(TM) system (copyright 1992, Gaussian, Inc.),
 the Gaussian 90(TM) system (copyright 1990, Gaussian, Inc.),
 the Gaussian 88(TM) system (copyright 1988, Gaussian, Inc.),
 the Gaussian 86(TM) system (copyright 1986, Carnegie Mellon
 University), and the Gaussian 82(TM) system (copyright 1983,
 Carnegie Mellon University). Gaussian is a federally registered
 trademark of Gaussian, Inc.
  
 This software contains proprietary and confidential information,
 including trade secrets, belonging to Gaussian, Inc.
  
 This software is provided under written license and may be
 used, copied, transmitted, or stored only in accord with that
 written license.
  
 The following legend is applicable only to US Government
 contracts under FAR:
  
                    RESTRICTED RIGHTS LEGEND
  
 Use, reproduction and disclosure by the US Government is
 subject to restrictions as set forth in subparagraphs (a)
 and (c) of the Commercial Computer Software - Restricted
 Rights clause in FAR 52.227-19.
  
 Gaussian, Inc.
 340 Quinnipiac St., Bldg. 40, Wallingford CT 06492
  
  
 ---------------------------------------------------------------
 Warning -- This program may not be used in any manner that
 competes with the business of Gaussian, Inc. or will provide
 assistance to any competitor of Gaussian, Inc.  The licensee
 of this program is prohibited from giving any competitor of
 Gaussian, Inc. access to this program.  By using this program,
 the user acknowledges that Gaussian, Inc. is engaged in the
 business of creating and licensing software in the field of
 computational chemistry and represents and warrants to the
 licensee that it is not a competitor of Gaussian, Inc. and that
 it will not use this program in any manner prohibited above.
 ---------------------------------------------------------------
  

 Cite this work as:
 Gaussian 16, Revision C.01,
 M. J. Frisch, G. W. Trucks, H. B. Schlegel, G. E. Scuseria, 
 M. A. Robb, J. R. Cheeseman, G. Scalmani, V. Barone, 
 G. A. Petersson, H. Nakatsuji, X. Li, M. Caricato, A. V. Marenich, 
 J. Bloino, B. G. Janesko, R. Gomperts, B. Mennucci, H. P. Hratchian, 
 J. V. Ortiz, A. F. Izmaylov, J. L. Sonnenberg, D. Williams-Young, 
 F. Ding, F. Lipparini, F. Egidi, J. Goings, B. Peng, A. Petrone, 
 T. Henderson, D. Ranasinghe, V. G. Zakrzewski, J. Gao, N. Rega, 
 G. Zheng, W. Liang, M. Hada, M. Ehara, K. Toyota, R. Fukuda, 
 J. Hasegawa, M. Ishida, T. Nakajima, Y. Honda, O. Kitao, H. Nakai, 
 T. Vreven, K. Throssell, J. A. Montgomery, Jr., J. E. Peralta, 
 F. Ogliaro, M. J. Bearpark, J. J. Heyd, E. N. Brothers, K. N. Kudin, 
 V. N. Staroverov, T. A. Keith, R. Kobayashi, J. Normand, 
 K. Raghavachari, A. P. Rendell, J. C. Burant, S. S. Iyengar, 
 J. Tomasi, M. Cossi, J. M. Millam, M. Klene, C. Adamo, R. Cammi, 
 J. W. Ochterski, R. L. Martin, K. Morokuma, O. Farkas, 
 J. B. Foresman, and D. J. Fox, Gaussian, Inc., Wallingford CT, 2019.
 
 ******************************************
 Gaussian 16:  ES64L-G16RevC.01  3-Jul-2019
                17-Jul-2024 
 ******************************************
 %chk=a.chk
 %nprocshared=56
 Will use up to   56 processors via shared memory.
 %mem=96gb
 ----------------------------------------------------------------------
 # pbe1pbe em=gd3bj genecp g09default scf=(xqc,maxcycle=64) force guess
 =read nosymm
 ----------------------------------------------------------------------
 1/10=7,30=1,38=1,158=3,167=1/1,3;
 2/12=2,15=1,17=6,18=5,40=1/2;
 3/5=7,11=2,16=1,17=8,25=1,27=10,30=1,71=1,74=-13,75=-4,116=-2,124=41,158=3/1,2,3;
 4/5=1,60=-1/1;
 5/5=2,7=64,8=3,13=1,38=6,87=10/2,8;
 6/7=2,8=2,9=2,10=2,28=1,87=10/1;
 7/29=1,30=1,87=10/1,2,3,16;
 1/10=7,30=1,158=3,167=1/3;
 99//99;
 Using 2006 physical constants.
 ----------
 Title Card
 ----------
 Symbolic Z-matrix:
 Charge =  0 Multiplicity = 1
 6                     0.        0.79575   0.00012 
 6                    -1.27983   1.35966   0.00003 
 6                    -1.24525   2.75554  -0.00001 
 6                     0.        3.40484   0.00001 
 6                     1.24526   2.75554   0.00003 
 6                     1.27983   1.35967   0.00006 
 1                    -2.15848   3.33756  -0.00004 
 1                     0.        4.49193  -0.00001 
 1                     2.15848   3.33756   0.00005 
 6                     3.69192   0.58161  -0.00003 
 6                     1.9194   -0.90979   0.00014 
 6                     4.18762  -0.74283  -0.0001 
 6                     4.54912   1.66457  -0.00006 
 6                     5.55249  -0.99982  -0.0002 
 6                     5.93219   1.40409  -0.00017 
 1                     4.17861   2.68275   0.00001 
 6                     6.41803   0.10505  -0.00024 
 1                     5.92811  -2.0181   -0.00024 
 1                     6.62228   2.24246  -0.0002 
 1                     7.48972  -0.06925  -0.00033 
 6                    -3.69191   0.5816   -0.00004 
 6                    -1.91939  -0.90979   0.0001 
 6                    -4.18762  -0.74284  -0.00007 
 6                    -4.54912   1.66456  -0.00006 
 6                    -5.55248  -0.99983  -0.0001 
 6                    -5.93219   1.40408  -0.0001 
 1                    -4.17862   2.68275  -0.00002 
 6                    -6.41803   0.10504  -0.00012 
 1                    -5.9281   -2.0181   -0.0001 
 1                    -6.62228   2.24245  -0.00011 
 1                    -7.48972  -0.06926  -0.00015 
 7                    -2.30579   0.46984   0.00001 
 7                    -3.11965  -1.60458  -0.00005 
 7                     2.3058    0.46984   0.00008 
 7                     3.11966  -1.60458  -0.00003 
 6                     3.20145  -3.02928   0.00001 
 1                     3.71877  -3.40164  -0.89335 
 1                     3.71831  -3.40165   0.89364 
 1                     2.1874   -3.4394   -0.00027 
 6                    -3.20144  -3.02928   0.00004 
 1                    -3.71824  -3.40164   0.89372 
 1                    -3.71883  -3.40167  -0.89327 
 1                    -2.18739  -3.4394   -0.0003 
 27                    0.       -1.25194   0.00009 
 

 GradGradGradGradGradGradGradGradGradGradGradGradGradGradGradGradGradGrad
 Berny optimization.
 Initialization pass.
 Trust Radius=3.00D-01 FncErr=1.00D-07 GrdErr=1.00D-07 EigMax=2.50D+02 EigMin=1.00D-04
 Number of steps in this run=      2 maximum allowed number of steps=      2.
 GradGradGradGradGradGradGradGradGradGradGradGradGradGradGradGradGradGrad

                          Input orientation:                          
 ---------------------------------------------------------------------
 Center     Atomic      Atomic             Coordinates (Angstroms)
 Number     Number       Type             X           Y           Z
 ---------------------------------------------------------------------
      1          6           0        0.000002    0.795748    0.000115
      2          6           0       -1.279834    1.359663    0.000025
      3          6           0       -1.245252    2.755538   -0.000014
      4          6           0        0.000001    3.404838    0.000008
      5          6           0        1.245257    2.755537    0.000033
      6          6           0        1.279834    1.359666    0.000064
      7          1           0       -2.158479    3.337563   -0.000042
      8          1           0        0.000001    4.491933   -0.000008
      9          1           0        2.158485    3.337561    0.000047
     10          6           0        3.691920    0.581608   -0.000030
     11          6           0        1.919401   -0.909786    0.000137
     12          6           0        4.187623   -0.742832   -0.000096
     13          6           0        4.549117    1.664565   -0.000060
     14          6           0        5.552493   -0.999823   -0.000198
     15          6           0        5.932190    1.404089   -0.000171
     16          1           0        4.178615    2.682754    0.000007
     17          6           0        6.418032    0.105048   -0.000243
     18          1           0        5.928110   -2.018096   -0.000241
     19          1           0        6.622282    2.242462   -0.000197
     20          1           0        7.489722   -0.069248   -0.000328
     21          6           0       -3.691913    0.581598   -0.000042
     22          6           0       -1.919394   -0.909789    0.000103
     23          6           0       -4.187618   -0.742837   -0.000070
     24          6           0       -4.549119    1.664564   -0.000056
     25          6           0       -5.552485   -0.999831   -0.000100
     26          6           0       -5.932189    1.404078   -0.000101
     27          1           0       -4.178616    2.682746   -0.000024
     28          6           0       -6.418029    0.105042   -0.000124
     29          1           0       -5.928102   -2.018103   -0.000102
     30          1           0       -6.622285    2.242453   -0.000109
     31          1           0       -7.489718   -0.069260   -0.000154
     32          7           0       -2.305793    0.469843    0.000014
     33          7           0       -3.119650   -1.604583   -0.000047
     34          7           0        2.305797    0.469842    0.000077
     35          7           0        3.119658   -1.604579   -0.000035
     36          6           0        3.201448   -3.029279    0.000008
     37          1           0        3.718774   -3.401637   -0.893353
     38          1           0        3.718309   -3.401650    0.893638
     39          1           0        2.187402   -3.439396   -0.000275
     40          6           0       -3.201440   -3.029285    0.000044
     41          1           0       -3.718235   -3.401637    0.893721
     42          1           0       -3.718829   -3.401667   -0.893270
     43          1           0       -2.187394   -3.439399   -0.000304
     44         27           0        0.000005   -1.251944    0.000093
 ---------------------------------------------------------------------
                    Distance matrix (angstroms):
                    1          2          3          4          5
     1  C    0.000000
     2  C    1.398564   0.000000
     3  C    2.321946   1.396303   0.000000
     4  C    2.609090   2.412617   1.404367   0.000000
     5  C    2.321946   2.885229   2.490509   1.404369   0.000000
     6  C    1.398561   2.559668   2.885224   2.412613   1.396299
     7  H    3.334646   2.164280   1.082930   2.159529   3.453140
     8  H    3.696185   3.383651   2.136756   1.087095   2.136757
     9  H    3.334646   3.966626   3.453140   2.159532   1.082930
    10  C    3.698123   5.032267   5.394594   4.647676   3.272938
    11  C    2.567672   3.922436   4.842482   4.722296   3.726803
    12  C    4.461322   5.857778   6.461789   5.894009   4.571225
    13  C    4.631338   5.836920   5.896180   4.870627   3.479327
    14  C    5.835600   7.228269   7.766085   7.087398   5.714456
    15  C    5.963298   7.212160   7.303567   6.260500   4.877884
    16  H    4.584931   5.616514   5.424356   4.240544   2.934261
    17  C    6.455089   7.799436   8.108700   7.216629   5.812288
    18  H    6.562025   7.960132   8.616536   8.034344   6.687053
    19  H    6.778463   7.951274   7.884246   6.723520   5.401448
    20  H    7.539504   8.885207   9.180370   8.256222   6.853668
    21  C    3.698121   2.534465   3.272944   4.647679   5.394596
    22  C    2.567672   2.357848   3.726806   4.722297   4.842482
    23  C    4.461323   3.588274   4.571229   5.894011   6.461791
    24  C    4.631344   3.283472   3.479333   4.870631   5.896186
    25  C    5.835599   4.880856   5.714459   7.087398   7.766085
    26  C    5.963301   4.652567   4.877891   6.260505   7.303572
    27  H    4.584933   3.186454   2.934267   4.240549   5.424361
    28  C    6.455091   5.289151   5.812292   7.216631   8.108703
    29  H    6.562026   5.745929   6.687057   8.034345   8.616538
    30  H    6.778469   5.414896   5.401456   6.723527   7.884254
    31  H    7.539506   6.372165   6.853673   8.256225   9.180374
    32  N    2.328713   1.358076   2.519751   3.732410   4.223074
    33  N    3.936219   3.488793   4.745948   5.901400   6.169527
    34  N    2.328713   3.694392   4.223074   3.732412   2.519751
    35  N    3.936219   5.304928   6.169527   5.901400   4.745945
    36  C    4.987994   6.272535   7.296386   7.186593   6.106618
    37  H    5.678520   6.960904   7.959297   7.807398   6.695313
    38  H    5.678234   6.960609   7.959052   7.807219   6.695182
    39  H    4.766673   5.920532   7.082395   7.185281   6.266166
    40  C    4.987997   4.791183   6.106623   7.186596   7.296388
    41  H    5.678192   5.423511   6.695163   7.807184   7.959003
    42  H    5.678568   5.423738   6.695346   7.807442   7.959353
    43  H    4.766673   4.884123   6.266169   7.185282   7.082395
    44  Co   2.047692   2.908346   4.196495   4.656782   4.196493
                    6          7          8          9         10
     6  C    0.000000
     7  H    3.966620   0.000000
     8  H    3.383647   2.447776   0.000000
     9  H    2.164278   4.316964   2.447779   0.000000
    10  C    2.534469   6.467029   5.377816   3.153839   0.000000
    11  C    2.357850   5.888046   5.732596   4.254071   2.316480
    12  C    3.588277   7.544709   6.703651   4.557083   1.414165
    13  C    3.283470   6.913087   5.356161   2.917883   1.381153
    14  C    4.880861   8.847147   7.809580   5.507467   2.441855
    15  C    4.652568   8.318488   6.687723   4.240185   2.386479
    16  H    3.186455   6.370835   4.553454   2.123605   2.156776
    17  C    5.289154   9.165462   7.774051   5.347232   2.767453
    18  H    5.745933   9.699278   8.804711   6.549285   3.429141
    19  H    5.414894   8.848786   6.993906   4.596164   3.368301
    20  H    6.372167  10.232016   8.769281   6.326804   3.853170
    21  C    5.032262   3.153849   5.377821   6.467031   7.383833
    22  C    3.922433   4.254076   5.732598   5.888046   5.806127
    23  C    5.857777   4.557089   6.703653   7.544711   7.990074
    24  C    5.836921   2.917890   5.356165   6.913094   8.311890
    25  C    7.228264   5.507473   7.809582   8.847148   9.378698
    26  C    7.212159   4.240194   6.687730   8.318495   9.659189
    27  H    5.616513   2.123614   4.553460   6.370842   8.146172
    28  C    7.799434   5.347238   7.774054   9.165466  10.121175
    29  H    7.960130   6.549291   8.804714   9.699280   9.965106
    30  H    7.951276   4.596175   6.993914   8.848795  10.447068
    31  H    8.885205   6.326812   8.769286  10.232021  11.200565
    32  N    3.694388   2.871501   4.636151   5.305995   5.998754
    33  N    5.304925   5.034745   6.848338   7.230733   7.153805
    34  N    1.358082   5.305996   4.636152   2.871501   1.390621
    35  N    3.488796   7.230733   6.848336   5.034740   2.259845
    36  C    4.791183   8.322590   8.174221   6.451700   3.644046
    37  H    5.423710   8.986486   8.771304   6.974917   4.082278
    38  H    5.423538   8.986228   8.771150   6.974850   4.082363
    39  H    4.884125   8.050706   8.227436   6.777020   4.293257
    40  C    6.272536   6.451706   8.174224   8.322591   7.781836
    41  H    6.960555   6.974845   8.771116   8.986172   8.460227
    42  H    6.960960   6.974938   8.771347   8.986547   8.460707
    43  H    5.920531   6.777024   8.227437   8.050705   7.122839
    44  Co   2.908344   5.071748   5.743876   5.071744   4.122154
                   11         12         13         14         15
    11  C    0.000000
    12  C    2.274358   0.000000
    13  C    3.680040   2.434387   0.000000
    14  C    3.634208   1.388854   2.847056   0.000000
    15  C    4.632115   2.766366   1.407387   2.433713   0.000000
    16  H    4.243865   3.425597   1.083504   3.930510   2.170256
    17  C    4.611677   2.386132   2.434119   1.403530   1.386921
    18  H    4.159098   2.157682   3.932380   1.085342   3.422187
    19  H    5.661603   3.852212   2.152202   3.414214   1.085862
    20  H    5.633381   3.370100   3.413688   2.149145   2.143975
    21  C    5.806124   7.990069   8.311883   9.378696   9.659185
    22  C    3.838795   6.109298   6.961963   7.472430   8.185438
    23  C    6.109301   8.375241   9.062347   9.743501  10.345037
    24  C    6.961970   9.062351   9.098236  10.447082  10.484545
    25  C    7.472428   9.743498  10.447075  11.104978  11.733566
    26  C    8.185441  10.345038  10.484543  11.733570  11.864379
    27  H    7.077577   9.040384   8.786923  10.404605  10.191337
    28  C    8.398965  10.639490  11.077473  12.021403  12.418350
    29  H    7.925382  10.195794  11.105592  11.525666  12.344145
    30  H    9.104780  11.214545  11.186339  12.599110  12.582435
    31  H    9.446587  11.696751  12.163047  13.075367  13.502532
    32  N    4.444732   6.605681   6.958244   7.994534   8.290788
    33  N    5.086726   7.357911   8.336506   8.693205   9.538758
    34  N    1.432716   2.238715   2.541623   3.563839   3.744802
    35  N    1.386850   1.372282   3.568005   2.506874   4.118545
    36  C    2.477074   2.490057   4.883481   3.105819   5.206890
    37  H    3.200842   2.843761   5.210936   3.151026   5.365816
    38  H    3.200594   2.843999   5.211092   3.151500   5.366124
    39  H    2.543768   3.357431   5.623889   4.156364   6.122318
    40  C    5.542138   7.734735   9.061091   8.986104  10.152734
    41  H    6.228223   8.388728   9.737267   9.618431  10.817798
    42  H    6.228747   8.389228   9.737734   9.618932  10.818275
    43  H    4.823350   6.921872   8.451688   8.115257   9.454470
    44  Co   1.949655   4.218452   5.403744   5.558210   6.499640
                   16         17         18         19         20
    16  H    0.000000
    17  C    3.414609   0.000000
    18  H    5.015847   2.178936   0.000000
    19  H    2.483015   2.147150   4.316738   0.000000
    20  H    4.305456   1.085771   2.497327   2.469100   0.000000
    21  C    8.146169  10.121171   9.965102  10.447061  11.200561
    22  C    7.077575   8.398962   7.925380   9.104774   9.446585
    23  C    9.040383  10.639489  10.195795  11.214541  11.696752
    24  C    8.786925  11.077477  11.105598  11.186338  12.163051
    25  C   10.404601  12.021399  11.525663  12.599103  13.075364
    26  C   10.191338  12.418351  12.344147  12.582433  13.502533
    27  H    8.357231  10.905663  11.146471  10.809868  11.988477
    28  C   10.905662  12.836061  12.527364  13.214320  13.908843
    29  H   11.146470  12.527362  11.856212  13.253850  13.558615
    30  H   10.809870  13.214324  13.253855  13.244566  14.300095
    31  H   11.988477  13.908842  13.558616  14.300091  14.979441
    32  N    6.851607   8.731449   8.601569   9.102345   9.810338
    33  N    8.464392   9.689696   9.057204  10.474015  10.719890
    34  N    2.899038   4.128383   4.394426   4.666285   5.211880
    35  N    4.416176   3.715117   2.838731   5.202700   4.631922
    36  C    5.795013   4.491149   2.908123   6.284374   5.210670
    37  H    6.166795   4.514475   2.755540   6.409675   5.111004
    38  H    6.166882   4.514916   2.756168   6.409992   5.111520
    39  H    6.437830   5.519177   4.001623   7.207750   6.282714
    40  C    9.332342  10.117227   9.185379  11.148849  11.093366
    41  H   10.008935  10.762896   9.785976  11.814450  11.726997
    42  H   10.009383  10.763387   9.786481  11.814920  11.727489
    43  H    8.832147   9.306796   8.239023  10.483030  10.247170
    44  Co   5.739567   6.559916   5.977409   7.487684   7.582522
                   21         22         23         24         25
    21  C    0.000000
    22  C    2.316476   0.000000
    23  C    1.414160   2.274360   0.000000
    24  C    1.381165   3.680047   2.434391   0.000000
    25  C    2.441852   3.634207   1.388851   2.847059   0.000000
    26  C    2.386485   4.632117   2.766364   1.407386   2.433712
    27  H    2.156781   4.243866   3.425595   1.083498   3.930508
    28  C    2.767456   4.611681   2.386133   2.434119   1.403535
    29  H    3.429138   4.159099   2.157682   3.932383   1.085342
    30  H    3.368311   5.661609   3.852215   2.152202   3.414217
    31  H    3.853172   5.633383   3.370099   3.413689   2.149148
    32  N    1.390618   1.432721   2.238718   2.541628   3.563839
    33  N    2.259839   1.386850   1.372284   3.568012   2.506873
    34  N    5.998752   4.444730   6.605682   6.958250   7.994532
    35  N    7.153801   5.086726   7.357913   8.336512   8.693203
    36  C    7.781829   5.542135   7.734734   9.061095   8.986100
    37  H    8.460641   6.228684   8.389172   9.737681   9.618877
    38  H    8.460279   6.228279   8.388783   9.737329   9.618477
    39  H    7.122833   4.823348   6.921873   8.451694   8.115253
    40  C    3.644041   2.477076   2.490058   4.883488   3.105816
    41  H    4.082360   3.200577   2.844012   5.211104   3.151517
    42  H    4.082276   3.200865   2.843756   5.210941   3.151009
    43  H    4.293250   2.543767   3.357431   5.623894   4.156360
    44  Co   4.122152   1.949657   4.218457   5.403753   5.558210
                   26         27         28         29         30
    26  C    0.000000
    27  H    2.170256   0.000000
    28  C    1.386916   3.414605   0.000000
    29  H    3.422184   5.015844   2.178939   0.000000
    30  H    1.085866   2.483017   2.147149   4.316738   0.000000
    31  H    2.143974   4.305455   1.085771   2.497325   2.469101
    32  N    3.744802   2.899036   4.128385   4.394428   4.666289
    33  N    4.118546   4.416175   3.715121   2.838733   5.202705
    34  N    8.290791   6.851610   8.731450   8.601568   9.102351
    35  N    9.538761   8.464394   9.689700   9.057206  10.474021
    36  C   10.152733   9.332340  10.117228   9.185378  11.148851
    37  H   10.818220  10.009322  10.763337   9.786433  11.814869
    38  H   10.817851  10.008992  10.762947   9.786021  11.814506
    39  H    9.454470   8.832147   9.306798   8.239022  10.483034
    40  C    5.206889   5.795013   4.491152   2.908122   6.284377
    41  H    5.366135   6.166884   4.514936   2.756192   6.410007
    42  H    5.365808   6.166796   4.514465   2.755519   6.409671
    43  H    6.122317   6.437828   5.519179   4.001622   7.207753
    44  Co   6.499644   5.739569   6.559921   5.977412   7.487692
                   31         32         33         34         35
    31  H    0.000000
    32  N    5.211882   0.000000
    33  N    4.631923   2.228364   0.000000
    34  N    9.810339   4.611590   5.808504   0.000000
    35  N   10.719891   5.808506   6.239308   2.228361   0.000000
    36  C   11.093365   6.524841   6.479663   3.611930   1.427046
    37  H   11.727439   7.216776   7.126811   4.216998   2.094368
    38  H   11.727043   7.216427   7.126416   4.216882   2.094397
    39  H   10.247169   5.955750   5.615278   3.911031   2.058071
    40  C    5.210669   3.611935   1.427047   6.524841   6.479666
    41  H    5.111539   4.216878   2.094404   7.216365   7.126360
    42  H    5.110987   4.217015   2.094366   7.216840   7.126872
    43  H    6.282713   3.911034   2.058069   5.955748   5.615280
    44  Co   7.582525   2.877716   3.139522   2.877712   3.139520
                   36         37         38         39         40
    36  C    0.000000
    37  H    1.097438   0.000000
    38  H    1.097442   1.786991   0.000000
    39  H    1.093839   1.773165   1.773183   0.000000
    40  C    6.402888   6.987572   6.987138   5.404426   0.000000
    41  H    6.987087   7.648708   7.436544   5.973040   1.097443
    42  H    6.987621   7.437603   7.648795   5.973478   1.097437
    43  H    5.404425   5.973423   5.973096   4.374796   1.093839
    44  Co   3.661715   4.387331   4.386963   3.093486   3.661720
                   41         42         43         44
    41  H    0.000000
    42  H    1.786991   0.000000
    43  H    1.773184   1.773162   0.000000
    44  Co   4.386920   4.387384   3.093489   0.000000
 Symmetry turned off by external request.
 Stoichiometry    C22H17CoN4
 Framework group  C1[X(C22H17CoN4)]
 Deg. of freedom   126
 Full point group                 C1      NOp   1
 Rotational constants (GHZ):           0.4624769           0.1003606           0.0825518
 General basis read from cards:  (5D, 7F)
 ======================================================================================================
                                       Pseudopotential Parameters
 ======================================================================================================
  Center     Atomic      Valence      Angular      Power
  Number     Number     Electrons     Momentum     of R      Exponent        Coefficient   SO-Coeffient
 ======================================================================================================
    1          6
                                   No pseudopotential on this center.
    2          6
                                   No pseudopotential on this center.
    3          6
                                   No pseudopotential on this center.
    4          6
                                   No pseudopotential on this center.
    5          6
                                   No pseudopotential on this center.
    6          6
                                   No pseudopotential on this center.
    7          1
                                   No pseudopotential on this center.
    8          1
                                   No pseudopotential on this center.
    9          1
                                   No pseudopotential on this center.
   10          6
                                   No pseudopotential on this center.
   11          6
                                   No pseudopotential on this center.
   12          6
                                   No pseudopotential on this center.
   13          6
                                   No pseudopotential on this center.
   14          6
                                   No pseudopotential on this center.
   15          6
                                   No pseudopotential on this center.
   16          1
                                   No pseudopotential on this center.
   17          6
                                   No pseudopotential on this center.
   18          1
                                   No pseudopotential on this center.
   19          1
                                   No pseudopotential on this center.
   20          1
                                   No pseudopotential on this center.
   21          6
                                   No pseudopotential on this center.
   22          6
                                   No pseudopotential on this center.
   23          6
                                   No pseudopotential on this center.
   24          6
                                   No pseudopotential on this center.
   25          6
                                   No pseudopotential on this center.
   26          6
                                   No pseudopotential on this center.
   27          1
                                   No pseudopotential on this center.
   28          6
                                   No pseudopotential on this center.
   29          1
                                   No pseudopotential on this center.
   30          1
                                   No pseudopotential on this center.
   31          1
                                   No pseudopotential on this center.
   32          7
                                   No pseudopotential on this center.
   33          7
                                   No pseudopotential on this center.
   34          7
                                   No pseudopotential on this center.
   35          7
                                   No pseudopotential on this center.
   36          6
                                   No pseudopotential on this center.
   37          1
                                   No pseudopotential on this center.
   38          1
                                   No pseudopotential on this center.
   39          1
                                   No pseudopotential on this center.
   40          6
                                   No pseudopotential on this center.
   41          1
                                   No pseudopotential on this center.
   42          1
                                   No pseudopotential on this center.
   43          1
                                   No pseudopotential on this center.
   44         27           17
                                      F and up 
                                                     2        1.0000000        0.00000000    0.00000000
                                      S - F
                                                     2       23.6600000      283.96056600    0.00000000
                                                     2       10.6100000       47.15684600    0.00000000
                                      P - F
                                                     2       25.0400000      182.21223600    0.00000000
                                                     2       10.4400000       35.23335200    0.00000000
                                      D - F
                                                     2       29.5400000      -26.47533300    0.00000000
                                                     2       10.1800000       -1.82578700    0.00000000
 ======================================================================================================
   441 basis functions,   871 primitive gaussians,   473 cartesian basis functions
    97 alpha electrons       97 beta electrons
       nuclear repulsion energy      2484.3947981267 Hartrees.
 NAtoms=   44 NActive=   44 NUniq=   44 SFac= 1.00D+00 NAtFMM=   60 NAOKFM=F Big=F
 Integral buffers will be    131072 words long.
 Raffenetti 2 integral format.
 Two-electron integral symmetry is turned off.
 Nuclear repulsion after empirical dispersion term =     2484.3357062971 Hartrees.
 One-electron integrals computed using PRISM.
   1 Symmetry operations used in ECPInt.
 ECPInt:  NShTT=   11781 NPrTT=   71406 LenC2=    9520 LenP2D=   32016.
 LDataN:  DoStor=T MaxTD1= 6 Len=  172
 NBasis=   441 RedAO= T EigKep=  3.23D-04  NBF=   441
 NBsUse=   441 1.00D-06 EigRej= -1.00D+00 NBFU=   441
 Initial guess from the checkpoint file:  "a.chk"
 B after Tr=    -0.000000    0.000423   -0.000001
         Rot=    1.000000   -0.000000   -0.000000   -0.000000 Ang=  -0.00 deg.
 Initial guess <Sx>= 0.0000 <Sy>= 0.0000 <Sz>= 0.0000 <S**2>= 0.0000 S= 0.0000
 Requested convergence on RMS density matrix=1.00D-08 within  64 cycles.
 Requested convergence on MAX density matrix=1.00D-06.
 Requested convergence on             energy=1.00D-06.
 No special actions if energy rises.
 EnCoef did     5 forward-backward iterations
 SCF Done:  E(UPBE1PBE) =  -1212.11763607     A.U. after   17 cycles
            NFock= 17  Conv=0.39D-08     -V/T= 2.0552
 <Sx>= 0.0000 <Sy>= 0.0000 <Sz>= 0.0000 <S**2>= 0.0000 S= 0.0000
 <L.S>=  0.00000000000    
 Annihilation of the first spin contaminant:
 S**2 before annihilation     0.0000,   after    -0.0000
 QCSCF skips out because SCF is already converged.

 **********************************************************************

            Population analysis using the SCF Density.

 **********************************************************************

 Alpha  occ. eigenvalues --  -14.45790 -14.45790 -14.45230 -14.45230 -10.28330
 Alpha  occ. eigenvalues --  -10.28330 -10.27656 -10.27656 -10.27455 -10.27455
 Alpha  occ. eigenvalues --  -10.27291 -10.27291 -10.25257 -10.25256 -10.24172
 Alpha  occ. eigenvalues --  -10.24172 -10.23951 -10.23951 -10.23488 -10.23488
 Alpha  occ. eigenvalues --  -10.23435 -10.23435 -10.21516 -10.21512 -10.21197
 Alpha  occ. eigenvalues --  -10.19126  -3.83123  -2.34867  -2.34824  -2.31033
 Alpha  occ. eigenvalues --   -1.05922  -1.05858  -0.97076  -0.96744  -0.88198
 Alpha  occ. eigenvalues --   -0.87943  -0.84988  -0.80328  -0.78794  -0.77920
 Alpha  occ. eigenvalues --   -0.77822  -0.75585  -0.75032  -0.72968  -0.71837
 Alpha  occ. eigenvalues --   -0.66553  -0.65182  -0.64548  -0.64101  -0.62627
 Alpha  occ. eigenvalues --   -0.61415  -0.58919  -0.57246  -0.56645  -0.54112
 Alpha  occ. eigenvalues --   -0.53218  -0.52001  -0.49709  -0.49651  -0.49067
 Alpha  occ. eigenvalues --   -0.48234  -0.47876  -0.47459  -0.46642  -0.46168
 Alpha  occ. eigenvalues --   -0.45796  -0.45344  -0.45028  -0.44592  -0.44058
 Alpha  occ. eigenvalues --   -0.42414  -0.41916  -0.41111  -0.38539  -0.38403
 Alpha  occ. eigenvalues --   -0.38316  -0.37524  -0.36853  -0.36813  -0.36733
 Alpha  occ. eigenvalues --   -0.35117  -0.34645  -0.34445  -0.33871  -0.31613
 Alpha  occ. eigenvalues --   -0.29007  -0.26659  -0.25927  -0.24762  -0.24446
 Alpha  occ. eigenvalues --   -0.21957  -0.21324  -0.20511  -0.20177  -0.16422
 Alpha  occ. eigenvalues --   -0.15323  -0.14859
 Alpha virt. eigenvalues --   -0.04494  -0.02508  -0.00682  -0.00088   0.00856
 Alpha virt. eigenvalues --    0.01323   0.02019   0.03281   0.05316   0.05923
 Alpha virt. eigenvalues --    0.06212   0.07309   0.08925   0.09296   0.10094
 Alpha virt. eigenvalues --    0.10447   0.12610   0.13131   0.14191   0.14236
 Alpha virt. eigenvalues --    0.15306   0.15606   0.15890   0.16020   0.16517
 Alpha virt. eigenvalues --    0.16812   0.17047   0.17659   0.17895   0.18293
 Alpha virt. eigenvalues --    0.19212   0.19223   0.19738   0.20378   0.22116
 Alpha virt. eigenvalues --    0.22177   0.22595   0.22729   0.22945   0.23854
 Alpha virt. eigenvalues --    0.25903   0.25943   0.26484   0.27728   0.27752
 Alpha virt. eigenvalues --    0.28348   0.29320   0.29542   0.30593   0.31013
 Alpha virt. eigenvalues --    0.31710   0.33247   0.33716   0.34469   0.34599
 Alpha virt. eigenvalues --    0.36322   0.37749   0.38138   0.39591   0.39651
 Alpha virt. eigenvalues --    0.41556   0.43130   0.44624   0.45219   0.46319
 Alpha virt. eigenvalues --    0.47470   0.47733   0.50373   0.51285   0.51917
 Alpha virt. eigenvalues --    0.52255   0.53557   0.53768   0.55948   0.56029
 Alpha virt. eigenvalues --    0.56865   0.56881   0.57022   0.58150   0.58409
 Alpha virt. eigenvalues --    0.58618   0.59054   0.59297   0.60144   0.61471
 Alpha virt. eigenvalues --    0.61544   0.61891   0.63082   0.63124   0.63227
 Alpha virt. eigenvalues --    0.63375   0.63388   0.63390   0.63973   0.64476
 Alpha virt. eigenvalues --    0.65266   0.65935   0.66373   0.66829   0.67058
 Alpha virt. eigenvalues --    0.67630   0.68210   0.68428   0.69146   0.70911
 Alpha virt. eigenvalues --    0.72234   0.72547   0.73999   0.75870   0.76210
 Alpha virt. eigenvalues --    0.76507   0.77072   0.78299   0.79760   0.80122
 Alpha virt. eigenvalues --    0.81044   0.81993   0.82663   0.83320   0.83817
 Alpha virt. eigenvalues --    0.84182   0.84382   0.85055   0.86748   0.86780
 Alpha virt. eigenvalues --    0.86794   0.87269   0.87578   0.89819   0.90314
 Alpha virt. eigenvalues --    0.90509   0.91465   0.91681   0.92066   0.92830
 Alpha virt. eigenvalues --    0.93426   0.93708   0.95282   0.95565   0.95945
 Alpha virt. eigenvalues --    0.95946   0.97203   0.97903   0.97926   0.98284
 Alpha virt. eigenvalues --    0.98343   1.00095   1.00230   1.01670   1.02137
 Alpha virt. eigenvalues --    1.02859   1.03334   1.03960   1.06358   1.07383
 Alpha virt. eigenvalues --    1.09127   1.09686   1.11067   1.11181   1.13860
 Alpha virt. eigenvalues --    1.14961   1.15808   1.16091   1.16697   1.18435
 Alpha virt. eigenvalues --    1.18452   1.19101   1.20273   1.23686   1.24064
 Alpha virt. eigenvalues --    1.24522   1.25335   1.27027   1.27261   1.27774
 Alpha virt. eigenvalues --    1.29157   1.29434   1.30160   1.32749   1.33332
 Alpha virt. eigenvalues --    1.33794   1.36176   1.36334   1.37318   1.38982
 Alpha virt. eigenvalues --    1.40320   1.41657   1.42716   1.42752   1.42972
 Alpha virt. eigenvalues --    1.44939   1.45175   1.45376   1.46343   1.47729
 Alpha virt. eigenvalues --    1.47947   1.49243   1.49927   1.49937   1.51134
 Alpha virt. eigenvalues --    1.51245   1.51280   1.53268   1.54763   1.57170
 Alpha virt. eigenvalues --    1.57356   1.59425   1.62026   1.65482   1.65772
 Alpha virt. eigenvalues --    1.65827   1.70404   1.72486   1.72808   1.76646
 Alpha virt. eigenvalues --    1.77395   1.78629   1.79816   1.80003   1.82109
 Alpha virt. eigenvalues --    1.82763   1.85674   1.86897   1.86973   1.87487
 Alpha virt. eigenvalues --    1.88352   1.88637   1.89960   1.91165   1.91861
 Alpha virt. eigenvalues --    1.93291   1.95089   1.95130   1.96436   1.97043
 Alpha virt. eigenvalues --    1.97971   1.98444   1.98658   1.98760   1.99060
 Alpha virt. eigenvalues --    1.99651   2.00208   2.01481   2.02432   2.03622
 Alpha virt. eigenvalues --    2.06398   2.06563   2.07402   2.10113   2.10169
 Alpha virt. eigenvalues --    2.12458   2.13066   2.14304   2.15098   2.15287
 Alpha virt. eigenvalues --    2.16188   2.16634   2.16743   2.19010   2.19796
 Alpha virt. eigenvalues --    2.20462   2.21473   2.21478   2.22406   2.23653
 Alpha virt. eigenvalues --    2.24811   2.24882   2.26076   2.27114   2.27591
 Alpha virt. eigenvalues --    2.27851   2.28088   2.28204   2.28444   2.28713
 Alpha virt. eigenvalues --    2.32877   2.34717   2.38845   2.39768   2.40526
 Alpha virt. eigenvalues --    2.40630   2.43991   2.44515   2.46220   2.46717
 Alpha virt. eigenvalues --    2.51536   2.51600   2.52084   2.57203   2.58586
 Alpha virt. eigenvalues --    2.58977   2.59760   2.60077   2.60470   2.62482
 Alpha virt. eigenvalues --    2.63946   2.64952   2.66459   2.67865   2.69479
 Alpha virt. eigenvalues --    2.69587   2.70150   2.72154   2.74020   2.74815
 Alpha virt. eigenvalues --    2.75425   2.75431   2.77499   2.78851   2.79320
 Alpha virt. eigenvalues --    2.80109   2.83327   2.85466   2.88207   2.88408
 Alpha virt. eigenvalues --    2.93433   2.94052   2.97645   2.98382   3.00250
 Alpha virt. eigenvalues --    3.00380   3.06216   3.06974   3.15142   3.19031
 Alpha virt. eigenvalues --    3.19559   3.29286   3.40015   3.46488   3.46988
 Alpha virt. eigenvalues --    3.52261   3.52639   3.61123   5.66738   5.67101
 Alpha virt. eigenvalues --    5.67515   5.68367   5.68825   5.69772   5.71867
 Alpha virt. eigenvalues --   45.82136  45.96761  46.02181  63.11706
  Beta  occ. eigenvalues --  -14.45790 -14.45790 -14.45230 -14.45230 -10.28330
  Beta  occ. eigenvalues --  -10.28330 -10.27656 -10.27656 -10.27455 -10.27455
  Beta  occ. eigenvalues --  -10.27291 -10.27291 -10.25257 -10.25256 -10.24172
  Beta  occ. eigenvalues --  -10.24172 -10.23951 -10.23951 -10.23488 -10.23488
  Beta  occ. eigenvalues --  -10.23435 -10.23435 -10.21516 -10.21512 -10.21197
  Beta  occ. eigenvalues --  -10.19126  -3.83123  -2.34867  -2.34824  -2.31033
  Beta  occ. eigenvalues --   -1.05922  -1.05858  -0.97076  -0.96744  -0.88198
  Beta  occ. eigenvalues --   -0.87943  -0.84988  -0.80328  -0.78794  -0.77920
  Beta  occ. eigenvalues --   -0.77822  -0.75585  -0.75032  -0.72968  -0.71837
  Beta  occ. eigenvalues --   -0.66553  -0.65182  -0.64548  -0.64101  -0.62627
  Beta  occ. eigenvalues --   -0.61415  -0.58919  -0.57246  -0.56645  -0.54112
  Beta  occ. eigenvalues --   -0.53218  -0.52001  -0.49709  -0.49651  -0.49067
  Beta  occ. eigenvalues --   -0.48234  -0.47876  -0.47459  -0.46642  -0.46168
  Beta  occ. eigenvalues --   -0.45796  -0.45344  -0.45028  -0.44592  -0.44058
  Beta  occ. eigenvalues --   -0.42414  -0.41916  -0.41111  -0.38539  -0.38403
  Beta  occ. eigenvalues --   -0.38316  -0.37524  -0.36853  -0.36813  -0.36733
  Beta  occ. eigenvalues --   -0.35117  -0.34645  -0.34445  -0.33871  -0.31613
  Beta  occ. eigenvalues --   -0.29007  -0.26659  -0.25927  -0.24762  -0.24446
  Beta  occ. eigenvalues --   -0.21957  -0.21324  -0.20511  -0.20177  -0.16422
  Beta  occ. eigenvalues --   -0.15323  -0.14859
  Beta virt. eigenvalues --   -0.04494  -0.02508  -0.00682  -0.00088   0.00856
  Beta virt. eigenvalues --    0.01323   0.02019   0.03281   0.05316   0.05923
  Beta virt. eigenvalues --    0.06212   0.07309   0.08925   0.09296   0.10094
  Beta virt. eigenvalues --    0.10447   0.12610   0.13131   0.14191   0.14236
  Beta virt. eigenvalues --    0.15306   0.15606   0.15890   0.16020   0.16517
  Beta virt. eigenvalues --    0.16812   0.17047   0.17659   0.17895   0.18293
  Beta virt. eigenvalues --    0.19212   0.19223   0.19738   0.20378   0.22116
  Beta virt. eigenvalues --    0.22177   0.22595   0.22729   0.22945   0.23854
  Beta virt. eigenvalues --    0.25903   0.25943   0.26484   0.27728   0.27752
  Beta virt. eigenvalues --    0.28348   0.29320   0.29542   0.30593   0.31013
  Beta virt. eigenvalues --    0.31710   0.33247   0.33716   0.34469   0.34599
  Beta virt. eigenvalues --    0.36322   0.37749   0.38138   0.39591   0.39651
  Beta virt. eigenvalues --    0.41556   0.43130   0.44624   0.45219   0.46319
  Beta virt. eigenvalues --    0.47470   0.47733   0.50373   0.51285   0.51917
  Beta virt. eigenvalues --    0.52255   0.53557   0.53768   0.55948   0.56029
  Beta virt. eigenvalues --    0.56865   0.56881   0.57022   0.58150   0.58409
  Beta virt. eigenvalues --    0.58618   0.59054   0.59297   0.60144   0.61471
  Beta virt. eigenvalues --    0.61544   0.61891   0.63082   0.63124   0.63227
  Beta virt. eigenvalues --    0.63375   0.63388   0.63390   0.63973   0.64476
  Beta virt. eigenvalues --    0.65266   0.65935   0.66373   0.66829   0.67058
  Beta virt. eigenvalues --    0.67630   0.68210   0.68428   0.69146   0.70911
  Beta virt. eigenvalues --    0.72234   0.72547   0.73999   0.75870   0.76210
  Beta virt. eigenvalues --    0.76507   0.77072   0.78299   0.79760   0.80122
  Beta virt. eigenvalues --    0.81044   0.81993   0.82663   0.83320   0.83817
  Beta virt. eigenvalues --    0.84182   0.84382   0.85055   0.86748   0.86780
  Beta virt. eigenvalues --    0.86794   0.87269   0.87578   0.89819   0.90314
  Beta virt. eigenvalues --    0.90509   0.91465   0.91681   0.92066   0.92830
  Beta virt. eigenvalues --    0.93426   0.93708   0.95282   0.95565   0.95945
  Beta virt. eigenvalues --    0.95946   0.97203   0.97903   0.97926   0.98284
  Beta virt. eigenvalues --    0.98343   1.00095   1.00230   1.01670   1.02137
  Beta virt. eigenvalues --    1.02859   1.03334   1.03960   1.06358   1.07383
  Beta virt. eigenvalues --    1.09127   1.09686   1.11067   1.11181   1.13860
  Beta virt. eigenvalues --    1.14961   1.15808   1.16091   1.16697   1.18435
  Beta virt. eigenvalues --    1.18452   1.19101   1.20273   1.23686   1.24064
  Beta virt. eigenvalues --    1.24522   1.25335   1.27027   1.27261   1.27774
  Beta virt. eigenvalues --    1.29157   1.29434   1.30160   1.32749   1.33332
  Beta virt. eigenvalues --    1.33794   1.36176   1.36334   1.37318   1.38982
  Beta virt. eigenvalues --    1.40320   1.41657   1.42716   1.42752   1.42972
  Beta virt. eigenvalues --    1.44939   1.45175   1.45376   1.46343   1.47729
  Beta virt. eigenvalues --    1.47947   1.49243   1.49927   1.49937   1.51134
  Beta virt. eigenvalues --    1.51245   1.51280   1.53268   1.54763   1.57170
  Beta virt. eigenvalues --    1.57356   1.59425   1.62026   1.65482   1.65772
  Beta virt. eigenvalues --    1.65827   1.70404   1.72486   1.72808   1.76646
  Beta virt. eigenvalues --    1.77395   1.78629   1.79816   1.80003   1.82109
  Beta virt. eigenvalues --    1.82763   1.85674   1.86897   1.86973   1.87487
  Beta virt. eigenvalues --    1.88352   1.88637   1.89960   1.91165   1.91861
  Beta virt. eigenvalues --    1.93291   1.95089   1.95130   1.96436   1.97043
  Beta virt. eigenvalues --    1.97971   1.98444   1.98658   1.98760   1.99060
  Beta virt. eigenvalues --    1.99651   2.00208   2.01481   2.02432   2.03622
  Beta virt. eigenvalues --    2.06398   2.06563   2.07402   2.10113   2.10169
  Beta virt. eigenvalues --    2.12458   2.13066   2.14304   2.15098   2.15287
  Beta virt. eigenvalues --    2.16188   2.16634   2.16743   2.19010   2.19796
  Beta virt. eigenvalues --    2.20462   2.21473   2.21478   2.22406   2.23653
  Beta virt. eigenvalues --    2.24811   2.24882   2.26076   2.27114   2.27591
  Beta virt. eigenvalues --    2.27851   2.28088   2.28204   2.28444   2.28713
  Beta virt. eigenvalues --    2.32877   2.34717   2.38845   2.39768   2.40526
  Beta virt. eigenvalues --    2.40630   2.43991   2.44515   2.46220   2.46717
  Beta virt. eigenvalues --    2.51536   2.51600   2.52084   2.57203   2.58586
  Beta virt. eigenvalues --    2.58977   2.59760   2.60077   2.60470   2.62482
  Beta virt. eigenvalues --    2.63946   2.64952   2.66459   2.67865   2.69479
  Beta virt. eigenvalues --    2.69587   2.70150   2.72154   2.74020   2.74815
  Beta virt. eigenvalues --    2.75425   2.75431   2.77499   2.78851   2.79320
  Beta virt. eigenvalues --    2.80109   2.83327   2.85466   2.88207   2.88408
  Beta virt. eigenvalues --    2.93433   2.94052   2.97645   2.98382   3.00250
  Beta virt. eigenvalues --    3.00380   3.06216   3.06974   3.15142   3.19031
  Beta virt. eigenvalues --    3.19559   3.29286   3.40015   3.46488   3.46988
  Beta virt. eigenvalues --    3.52261   3.52639   3.61123   5.66738   5.67101
  Beta virt. eigenvalues --    5.67515   5.68367   5.68825   5.69772   5.71867
  Beta virt. eigenvalues --   45.82136  45.96761  46.02181  63.11706
          Condensed to atoms (all electrons):
               1          2          3          4          5          6
     1  C    5.099467   0.523674  -0.061559  -0.058255  -0.061559   0.523676
     2  C    0.523674   4.624013   0.521700  -0.017193  -0.040407  -0.018864
     3  C   -0.061559   0.521700   5.049446   0.535716  -0.032349  -0.040407
     4  C   -0.058255  -0.017193   0.535716   4.909505   0.535714  -0.017193
     5  C   -0.061559  -0.040407  -0.032349   0.535714   5.049449   0.521701
     6  C    0.523676  -0.018864  -0.040407  -0.017193   0.521701   4.624008
     7  H    0.006226  -0.039917   0.340295  -0.040287   0.003974   0.000889
     8  H    0.001505   0.002587  -0.035842   0.365423  -0.035842   0.002587
     9  H    0.006226   0.000889   0.003974  -0.040286   0.340294  -0.039917
    10  C    0.005897  -0.000040   0.000004   0.000120  -0.004813  -0.045373
    11  C    0.004047   0.001949  -0.000039   0.000026   0.003048  -0.061825
    12  C   -0.000649   0.000002  -0.000000   0.000001   0.000109   0.007020
    13  C    0.000137   0.000000  -0.000001   0.000046   0.002000  -0.003347
    14  C    0.000002  -0.000000   0.000000  -0.000000   0.000002  -0.000025
    15  C    0.000002  -0.000000   0.000000  -0.000001   0.000077   0.000059
    16  H   -0.000025   0.000001   0.000001   0.000087   0.000153   0.000776
    17  C    0.000000   0.000000   0.000000   0.000000  -0.000001  -0.000003
    18  H   -0.000000   0.000000   0.000000   0.000000  -0.000000   0.000002
    19  H   -0.000000   0.000000  -0.000000   0.000000   0.000001  -0.000003
    20  H    0.000000  -0.000000   0.000000  -0.000000  -0.000000  -0.000000
    21  C    0.005897  -0.045374  -0.004813   0.000120   0.000004  -0.000040
    22  C    0.004047  -0.061825   0.003048   0.000026  -0.000039   0.001949
    23  C   -0.000649   0.007020   0.000109   0.000001  -0.000000   0.000002
    24  C    0.000137  -0.003347   0.002000   0.000046  -0.000001   0.000000
    25  C    0.000002  -0.000025   0.000002  -0.000000   0.000000  -0.000000
    26  C    0.000002   0.000059   0.000077  -0.000001   0.000000  -0.000000
    27  H   -0.000025   0.000776   0.000153   0.000087   0.000001   0.000001
    28  C    0.000000  -0.000003  -0.000001   0.000000   0.000000   0.000000
    29  H   -0.000000   0.000002  -0.000000   0.000000   0.000000   0.000000
    30  H   -0.000000  -0.000003   0.000001   0.000000  -0.000000   0.000000
    31  H    0.000000  -0.000000  -0.000000  -0.000000   0.000000  -0.000000
    32  N   -0.040401   0.245480  -0.076566   0.004564   0.000085   0.006269
    33  N    0.001724   0.006238  -0.000145   0.000002   0.000000  -0.000037
    34  N   -0.040401   0.006269   0.000085   0.004564  -0.076566   0.245480
    35  N    0.001724  -0.000037   0.000000   0.000002  -0.000145   0.006238
    36  C   -0.000009   0.000000   0.000000  -0.000000   0.000002  -0.000032
    37  H   -0.000001  -0.000000   0.000000   0.000000  -0.000000   0.000004
    38  H   -0.000001  -0.000000   0.000000   0.000000  -0.000000   0.000004
    39  H   -0.000013   0.000001   0.000000  -0.000000   0.000000  -0.000008
    40  C   -0.000009  -0.000032   0.000002  -0.000000   0.000000   0.000000
    41  H   -0.000001   0.000004  -0.000000   0.000000   0.000000  -0.000000
    42  H   -0.000001   0.000004  -0.000000   0.000000   0.000000  -0.000000
    43  H   -0.000013  -0.000008   0.000000  -0.000000   0.000000   0.000001
    44  Co   0.255737  -0.057663   0.006707   0.002133   0.006707  -0.057663
               7          8          9         10         11         12
     1  C    0.006226   0.001505   0.006226   0.005897   0.004047  -0.000649
     2  C   -0.039917   0.002587   0.000889  -0.000040   0.001949   0.000002
     3  C    0.340295  -0.035842   0.003974   0.000004  -0.000039  -0.000000
     4  C   -0.040287   0.365423  -0.040286   0.000120   0.000026   0.000001
     5  C    0.003974  -0.035842   0.340294  -0.004813   0.003048   0.000109
     6  C    0.000889   0.002587  -0.039917  -0.045373  -0.061825   0.007020
     7  H    0.573684  -0.004101  -0.000090  -0.000000  -0.000001   0.000000
     8  H   -0.004101   0.550815  -0.004101  -0.000002   0.000001  -0.000000
     9  H   -0.000090  -0.004101   0.573684   0.000400  -0.000178  -0.000043
    10  C   -0.000000  -0.000002   0.000400   4.641820  -0.067124   0.515531
    11  C   -0.000001   0.000001  -0.000178  -0.067124   4.794005  -0.053779
    12  C    0.000000  -0.000000  -0.000043   0.515531  -0.053779   4.662864
    13  C   -0.000000   0.000002  -0.000364   0.536627   0.004344  -0.055886
    14  C   -0.000000   0.000000  -0.000000  -0.049044   0.004783   0.532722
    15  C   -0.000000   0.000000   0.000117  -0.006460  -0.000053  -0.037832
    16  H    0.000000  -0.000010   0.006460  -0.033141  -0.000152   0.003729
    17  C    0.000000  -0.000000   0.000002  -0.039018  -0.000056  -0.008959
    18  H    0.000000  -0.000000  -0.000000   0.003929  -0.000204  -0.037721
    19  H    0.000000   0.000000  -0.000008   0.001916   0.000003   0.000922
    20  H   -0.000000  -0.000000   0.000000   0.000889   0.000003   0.002309
    21  C    0.000400  -0.000002  -0.000000  -0.000000  -0.000007   0.000000
    22  C   -0.000178   0.000001  -0.000001  -0.000007  -0.012571  -0.000002
    23  C   -0.000043  -0.000000   0.000000   0.000000  -0.000002  -0.000000
    24  C   -0.000364   0.000002  -0.000000   0.000000   0.000000   0.000000
    25  C   -0.000000   0.000000  -0.000000  -0.000000   0.000000   0.000000
    26  C    0.000117   0.000000  -0.000000  -0.000000  -0.000000   0.000000
    27  H    0.006460  -0.000010   0.000000   0.000000   0.000000  -0.000000
    28  C    0.000002  -0.000000   0.000000   0.000000  -0.000000  -0.000000
    29  H   -0.000000  -0.000000   0.000000   0.000000   0.000000  -0.000000
    30  H   -0.000008   0.000000   0.000000   0.000000   0.000000   0.000000
    31  H    0.000000  -0.000000  -0.000000   0.000000   0.000000   0.000000
    32  N   -0.003515  -0.000097   0.000009   0.000000   0.000266   0.000000
    33  N   -0.000000  -0.000000  -0.000000   0.000000   0.000027   0.000000
    34  N    0.000009  -0.000097  -0.003515   0.256692   0.351735  -0.041206
    35  N   -0.000000  -0.000000  -0.000000  -0.046617   0.303249   0.261612
    36  C   -0.000000   0.000000  -0.000000   0.005507  -0.045151  -0.048436
    37  H    0.000000  -0.000000   0.000000  -0.000134   0.000557  -0.001057
    38  H    0.000000  -0.000000   0.000000  -0.000134   0.000551  -0.001054
    39  H    0.000000   0.000000   0.000000   0.000014   0.000637   0.002652
    40  C   -0.000000   0.000000  -0.000000   0.000000   0.000014   0.000000
    41  H    0.000000  -0.000000   0.000000  -0.000000  -0.000000  -0.000000
    42  H    0.000000  -0.000000   0.000000  -0.000000  -0.000000  -0.000000
    43  H    0.000000   0.000000   0.000000  -0.000000  -0.000002  -0.000000
    44  Co  -0.000612   0.000134  -0.000612   0.007154   0.362618   0.005879
              13         14         15         16         17         18
     1  C    0.000137   0.000002   0.000002  -0.000025   0.000000  -0.000000
     2  C    0.000000  -0.000000  -0.000000   0.000001   0.000000   0.000000
     3  C   -0.000001   0.000000   0.000000   0.000001   0.000000   0.000000
     4  C    0.000046  -0.000000  -0.000001   0.000087   0.000000   0.000000
     5  C    0.002000   0.000002   0.000077   0.000153  -0.000001  -0.000000
     6  C   -0.003347  -0.000025   0.000059   0.000776  -0.000003   0.000002
     7  H   -0.000000  -0.000000  -0.000000   0.000000   0.000000   0.000000
     8  H    0.000002   0.000000   0.000000  -0.000010  -0.000000  -0.000000
     9  H   -0.000364  -0.000000   0.000117   0.006460   0.000002  -0.000000
    10  C    0.536627  -0.049044  -0.006460  -0.033141  -0.039018   0.003929
    11  C    0.004344   0.004783  -0.000053  -0.000152  -0.000056  -0.000204
    12  C   -0.055886   0.532722  -0.037832   0.003729  -0.008959  -0.037721
    13  C    5.020955  -0.044662   0.511164   0.355548  -0.036226   0.000274
    14  C   -0.044662   5.027741  -0.037103   0.000434   0.518096   0.362272
    15  C    0.511164  -0.037103   4.897153  -0.035565   0.554631   0.003829
    16  H    0.355548   0.000434  -0.035565   0.510019   0.003642   0.000013
    17  C   -0.036226   0.518096   0.554631   0.003642   4.889553  -0.035165
    18  H    0.000274   0.362272   0.003829   0.000013  -0.035165   0.532331
    19  H   -0.035425   0.003924   0.368956  -0.003888  -0.035916  -0.000143
    20  H    0.003986  -0.036761  -0.036288  -0.000145   0.368477  -0.004153
    21  C    0.000000  -0.000000  -0.000000   0.000000   0.000000   0.000000
    22  C    0.000000   0.000000  -0.000000   0.000000  -0.000000   0.000000
    23  C    0.000000   0.000000   0.000000  -0.000000  -0.000000  -0.000000
    24  C    0.000000  -0.000000   0.000000   0.000000   0.000000   0.000000
    25  C   -0.000000  -0.000000   0.000000  -0.000000  -0.000000   0.000000
    26  C    0.000000   0.000000  -0.000000  -0.000000  -0.000000   0.000000
    27  H    0.000000  -0.000000  -0.000000   0.000000   0.000000  -0.000000
    28  C    0.000000  -0.000000  -0.000000   0.000000   0.000000   0.000000
    29  H    0.000000   0.000000   0.000000  -0.000000   0.000000  -0.000000
    30  H   -0.000000  -0.000000   0.000000  -0.000000   0.000000   0.000000
    31  H   -0.000000   0.000000   0.000000  -0.000000   0.000000   0.000000
    32  N   -0.000000   0.000000   0.000000   0.000000   0.000000  -0.000000
    33  N    0.000000  -0.000000   0.000000   0.000000   0.000000  -0.000000
    34  N   -0.076221   0.009343   0.005092  -0.004980  -0.000200  -0.000094
    35  N    0.009579  -0.081818  -0.000185  -0.000097   0.005350  -0.007264
    36  C   -0.000119  -0.002706   0.000009   0.000003  -0.000109   0.004239
    37  H   -0.000009   0.002518  -0.000001  -0.000000  -0.000004   0.000514
    38  H   -0.000009   0.002516  -0.000001  -0.000000  -0.000004   0.000513
    39  H    0.000005   0.000011  -0.000000  -0.000000   0.000001  -0.000032
    40  C    0.000000   0.000000  -0.000000   0.000000   0.000000  -0.000000
    41  H   -0.000000  -0.000000   0.000000  -0.000000   0.000000  -0.000000
    42  H   -0.000000  -0.000000   0.000000  -0.000000   0.000000  -0.000000
    43  H   -0.000000   0.000000  -0.000000   0.000000  -0.000000   0.000000
    44  Co  -0.001275  -0.001368   0.000168   0.000045   0.000151   0.000024
              19         20         21         22         23         24
     1  C   -0.000000   0.000000   0.005897   0.004047  -0.000649   0.000137
     2  C    0.000000  -0.000000  -0.045374  -0.061825   0.007020  -0.003347
     3  C   -0.000000   0.000000  -0.004813   0.003048   0.000109   0.002000
     4  C    0.000000  -0.000000   0.000120   0.000026   0.000001   0.000046
     5  C    0.000001  -0.000000   0.000004  -0.000039  -0.000000  -0.000001
     6  C   -0.000003  -0.000000  -0.000040   0.001949   0.000002   0.000000
     7  H    0.000000  -0.000000   0.000400  -0.000178  -0.000043  -0.000364
     8  H    0.000000  -0.000000  -0.000002   0.000001  -0.000000   0.000002
     9  H   -0.000008   0.000000  -0.000000  -0.000001   0.000000  -0.000000
    10  C    0.001916   0.000889  -0.000000  -0.000007   0.000000   0.000000
    11  C    0.000003   0.000003  -0.000007  -0.012571  -0.000002   0.000000
    12  C    0.000922   0.002309   0.000000  -0.000002  -0.000000   0.000000
    13  C   -0.035425   0.003986   0.000000   0.000000   0.000000   0.000000
    14  C    0.003924  -0.036761  -0.000000   0.000000   0.000000  -0.000000
    15  C    0.368956  -0.036288  -0.000000  -0.000000   0.000000   0.000000
    16  H   -0.003888  -0.000145   0.000000   0.000000  -0.000000   0.000000
    17  C   -0.035916   0.368477   0.000000  -0.000000  -0.000000   0.000000
    18  H   -0.000143  -0.004153   0.000000   0.000000  -0.000000   0.000000
    19  H    0.530160  -0.004549   0.000000   0.000000   0.000000  -0.000000
    20  H   -0.004549   0.535100   0.000000   0.000000   0.000000  -0.000000
    21  C    0.000000   0.000000   4.641831  -0.067124   0.515531   0.536625
    22  C    0.000000   0.000000  -0.067124   4.794006  -0.053778   0.004344
    23  C    0.000000   0.000000   0.515531  -0.053778   4.662856  -0.055885
    24  C   -0.000000  -0.000000   0.536625   0.004344  -0.055885   5.020948
    25  C   -0.000000   0.000000  -0.049045   0.004783   0.532723  -0.044662
    26  C    0.000000   0.000000  -0.006461  -0.000053  -0.037832   0.511166
    27  H   -0.000000  -0.000000  -0.033141  -0.000152   0.003729   0.355549
    28  C    0.000000   0.000000  -0.039018  -0.000056  -0.008959  -0.036227
    29  H    0.000000   0.000000   0.003929  -0.000204  -0.037721   0.000274
    30  H    0.000000   0.000000   0.001916   0.000003   0.000922  -0.035426
    31  H    0.000000   0.000000   0.000889   0.000003   0.002309   0.003986
    32  N    0.000000   0.000000   0.256693   0.351733  -0.041206  -0.076219
    33  N   -0.000000  -0.000000  -0.046617   0.303249   0.261611   0.009578
    34  N   -0.000090   0.000003   0.000000   0.000266   0.000000  -0.000000
    35  N    0.000004  -0.000099   0.000000   0.000027   0.000000   0.000000
    36  C   -0.000000  -0.000002   0.000000   0.000014   0.000000   0.000000
    37  H   -0.000000  -0.000000  -0.000000  -0.000000  -0.000000  -0.000000
    38  H   -0.000000  -0.000000  -0.000000  -0.000000  -0.000000  -0.000000
    39  H   -0.000000  -0.000000  -0.000000  -0.000002  -0.000000  -0.000000
    40  C    0.000000  -0.000000   0.005507  -0.045151  -0.048436  -0.000119
    41  H   -0.000000   0.000000  -0.000134   0.000551  -0.001053  -0.000009
    42  H   -0.000000   0.000000  -0.000134   0.000558  -0.001058  -0.000009
    43  H   -0.000000   0.000000   0.000014   0.000637   0.002652   0.000005
    44  Co   0.000013  -0.000011   0.007154   0.362618   0.005879  -0.001275
              25         26         27         28         29         30
     1  C    0.000002   0.000002  -0.000025   0.000000  -0.000000  -0.000000
     2  C   -0.000025   0.000059   0.000776  -0.000003   0.000002  -0.000003
     3  C    0.000002   0.000077   0.000153  -0.000001  -0.000000   0.000001
     4  C   -0.000000  -0.000001   0.000087   0.000000   0.000000   0.000000
     5  C    0.000000   0.000000   0.000001   0.000000   0.000000  -0.000000
     6  C   -0.000000  -0.000000   0.000001   0.000000   0.000000   0.000000
     7  H   -0.000000   0.000117   0.006460   0.000002  -0.000000  -0.000008
     8  H    0.000000   0.000000  -0.000010  -0.000000  -0.000000   0.000000
     9  H   -0.000000  -0.000000   0.000000   0.000000   0.000000   0.000000
    10  C   -0.000000  -0.000000   0.000000   0.000000   0.000000   0.000000
    11  C    0.000000  -0.000000   0.000000  -0.000000   0.000000   0.000000
    12  C    0.000000   0.000000  -0.000000  -0.000000  -0.000000   0.000000
    13  C   -0.000000   0.000000   0.000000   0.000000   0.000000  -0.000000
    14  C   -0.000000   0.000000  -0.000000  -0.000000   0.000000  -0.000000
    15  C    0.000000  -0.000000  -0.000000  -0.000000   0.000000   0.000000
    16  H   -0.000000  -0.000000   0.000000   0.000000  -0.000000  -0.000000
    17  C   -0.000000  -0.000000   0.000000   0.000000   0.000000   0.000000
    18  H    0.000000   0.000000  -0.000000   0.000000  -0.000000   0.000000
    19  H   -0.000000   0.000000  -0.000000   0.000000   0.000000   0.000000
    20  H    0.000000   0.000000  -0.000000   0.000000   0.000000   0.000000
    21  C   -0.049045  -0.006461  -0.033141  -0.039018   0.003929   0.001916
    22  C    0.004783  -0.000053  -0.000152  -0.000056  -0.000204   0.000003
    23  C    0.532723  -0.037832   0.003729  -0.008959  -0.037721   0.000922
    24  C   -0.044662   0.511166   0.355549  -0.036227   0.000274  -0.035426
    25  C    5.027746  -0.037103   0.000434   0.518094   0.362272   0.003924
    26  C   -0.037103   4.897150  -0.035565   0.554632   0.003829   0.368955
    27  H    0.000434  -0.035565   0.510019   0.003642   0.000013  -0.003888
    28  C    0.518094   0.554632   0.003642   4.889553  -0.035165  -0.035916
    29  H    0.362272   0.003829   0.000013  -0.035165   0.532330  -0.000143
    30  H    0.003924   0.368955  -0.003888  -0.035916  -0.000143   0.530161
    31  H   -0.036761  -0.036287  -0.000145   0.368477  -0.004152  -0.004549
    32  N    0.009343   0.005092  -0.004980  -0.000200  -0.000094  -0.000090
    33  N   -0.081819  -0.000185  -0.000097   0.005350  -0.007264   0.000004
    34  N    0.000000   0.000000   0.000000   0.000000  -0.000000   0.000000
    35  N   -0.000000   0.000000   0.000000   0.000000  -0.000000  -0.000000
    36  C    0.000000  -0.000000   0.000000   0.000000  -0.000000   0.000000
    37  H   -0.000000   0.000000  -0.000000   0.000000  -0.000000  -0.000000
    38  H   -0.000000   0.000000  -0.000000   0.000000  -0.000000  -0.000000
    39  H    0.000000  -0.000000   0.000000  -0.000000   0.000000  -0.000000
    40  C   -0.002706   0.000009   0.000003  -0.000109   0.004239  -0.000000
    41  H    0.002516  -0.000001  -0.000000  -0.000004   0.000513  -0.000000
    42  H    0.002518  -0.000001  -0.000000  -0.000004   0.000514  -0.000000
    43  H    0.000011  -0.000000  -0.000000   0.000001  -0.000032  -0.000000
    44  Co  -0.001368   0.000168   0.000045   0.000151   0.000024   0.000013
              31         32         33         34         35         36
     1  C    0.000000  -0.040401   0.001724  -0.040401   0.001724  -0.000009
     2  C   -0.000000   0.245480   0.006238   0.006269  -0.000037   0.000000
     3  C   -0.000000  -0.076566  -0.000145   0.000085   0.000000   0.000000
     4  C   -0.000000   0.004564   0.000002   0.004564   0.000002  -0.000000
     5  C    0.000000   0.000085   0.000000  -0.076566  -0.000145   0.000002
     6  C   -0.000000   0.006269  -0.000037   0.245480   0.006238  -0.000032
     7  H    0.000000  -0.003515  -0.000000   0.000009  -0.000000  -0.000000
     8  H   -0.000000  -0.000097  -0.000000  -0.000097  -0.000000   0.000000
     9  H   -0.000000   0.000009  -0.000000  -0.003515  -0.000000  -0.000000
    10  C    0.000000   0.000000   0.000000   0.256692  -0.046617   0.005507
    11  C    0.000000   0.000266   0.000027   0.351735   0.303249  -0.045151
    12  C    0.000000   0.000000   0.000000  -0.041206   0.261612  -0.048436
    13  C   -0.000000  -0.000000   0.000000  -0.076221   0.009579  -0.000119
    14  C    0.000000   0.000000  -0.000000   0.009343  -0.081818  -0.002706
    15  C    0.000000   0.000000   0.000000   0.005092  -0.000185   0.000009
    16  H   -0.000000   0.000000   0.000000  -0.004980  -0.000097   0.000003
    17  C    0.000000   0.000000   0.000000  -0.000200   0.005350  -0.000109
    18  H    0.000000  -0.000000  -0.000000  -0.000094  -0.007264   0.004239
    19  H    0.000000   0.000000  -0.000000  -0.000090   0.000004  -0.000000
    20  H    0.000000   0.000000  -0.000000   0.000003  -0.000099  -0.000002
    21  C    0.000889   0.256693  -0.046617   0.000000   0.000000   0.000000
    22  C    0.000003   0.351733   0.303249   0.000266   0.000027   0.000014
    23  C    0.002309  -0.041206   0.261611   0.000000   0.000000   0.000000
    24  C    0.003986  -0.076219   0.009578  -0.000000   0.000000   0.000000
    25  C   -0.036761   0.009343  -0.081819   0.000000  -0.000000   0.000000
    26  C   -0.036287   0.005092  -0.000185   0.000000   0.000000  -0.000000
    27  H   -0.000145  -0.004980  -0.000097   0.000000   0.000000   0.000000
    28  C    0.368477  -0.000200   0.005350   0.000000   0.000000   0.000000
    29  H   -0.004152  -0.000094  -0.007264  -0.000000  -0.000000  -0.000000
    30  H   -0.004549  -0.000090   0.000004   0.000000  -0.000000   0.000000
    31  H    0.535099   0.000003  -0.000099   0.000000  -0.000000  -0.000000
    32  N    0.000003   7.216922  -0.060783  -0.000064   0.000000   0.000000
    33  N   -0.000099  -0.060783   7.062810   0.000000  -0.000000  -0.000000
    34  N    0.000000  -0.000064   0.000000   7.216928  -0.060783   0.004641
    35  N   -0.000000   0.000000  -0.000000  -0.060783   7.062808   0.300194
    36  C   -0.000000   0.000000  -0.000000   0.004641   0.300194   5.060641
    37  H    0.000000   0.000000   0.000000  -0.000066  -0.041431   0.377173
    38  H    0.000000   0.000000   0.000000  -0.000066  -0.041435   0.377180
    39  H    0.000000  -0.000000   0.000001   0.000162  -0.032345   0.376133
    40  C   -0.000002   0.004641   0.300194   0.000000  -0.000000   0.000000
    41  H   -0.000000  -0.000066  -0.041435   0.000000   0.000000  -0.000000
    42  H   -0.000000  -0.000066  -0.041431   0.000000   0.000000  -0.000000
    43  H   -0.000000   0.000162  -0.032345  -0.000000   0.000001  -0.000000
    44  Co  -0.000011  -0.072735  -0.055050  -0.072736  -0.055050  -0.007485
              37         38         39         40         41         42
     1  C   -0.000001  -0.000001  -0.000013  -0.000009  -0.000001  -0.000001
     2  C   -0.000000  -0.000000   0.000001  -0.000032   0.000004   0.000004
     3  C    0.000000   0.000000   0.000000   0.000002  -0.000000  -0.000000
     4  C    0.000000   0.000000  -0.000000  -0.000000   0.000000   0.000000
     5  C   -0.000000  -0.000000   0.000000   0.000000   0.000000   0.000000
     6  C    0.000004   0.000004  -0.000008   0.000000  -0.000000  -0.000000
     7  H    0.000000   0.000000   0.000000  -0.000000   0.000000   0.000000
     8  H   -0.000000  -0.000000   0.000000   0.000000  -0.000000  -0.000000
     9  H    0.000000   0.000000   0.000000  -0.000000   0.000000   0.000000
    10  C   -0.000134  -0.000134   0.000014   0.000000  -0.000000  -0.000000
    11  C    0.000557   0.000551   0.000637   0.000014  -0.000000  -0.000000
    12  C   -0.001057  -0.001054   0.002652   0.000000  -0.000000  -0.000000
    13  C   -0.000009  -0.000009   0.000005   0.000000  -0.000000  -0.000000
    14  C    0.002518   0.002516   0.000011   0.000000  -0.000000  -0.000000
    15  C   -0.000001  -0.000001  -0.000000  -0.000000   0.000000   0.000000
    16  H   -0.000000  -0.000000  -0.000000   0.000000  -0.000000  -0.000000
    17  C   -0.000004  -0.000004   0.000001   0.000000   0.000000   0.000000
    18  H    0.000514   0.000513  -0.000032  -0.000000  -0.000000  -0.000000
    19  H   -0.000000  -0.000000  -0.000000   0.000000  -0.000000  -0.000000
    20  H   -0.000000  -0.000000  -0.000000  -0.000000   0.000000   0.000000
    21  C   -0.000000  -0.000000  -0.000000   0.005507  -0.000134  -0.000134
    22  C   -0.000000  -0.000000  -0.000002  -0.045151   0.000551   0.000558
    23  C   -0.000000  -0.000000  -0.000000  -0.048436  -0.001053  -0.001058
    24  C   -0.000000  -0.000000  -0.000000  -0.000119  -0.000009  -0.000009
    25  C   -0.000000  -0.000000   0.000000  -0.002706   0.002516   0.002518
    26  C    0.000000   0.000000  -0.000000   0.000009  -0.000001  -0.000001
    27  H   -0.000000  -0.000000   0.000000   0.000003  -0.000000  -0.000000
    28  C    0.000000   0.000000  -0.000000  -0.000109  -0.000004  -0.000004
    29  H   -0.000000  -0.000000   0.000000   0.004239   0.000513   0.000514
    30  H   -0.000000  -0.000000  -0.000000  -0.000000  -0.000000  -0.000000
    31  H    0.000000   0.000000   0.000000  -0.000002  -0.000000  -0.000000
    32  N    0.000000   0.000000  -0.000000   0.004641  -0.000066  -0.000066
    33  N    0.000000   0.000000   0.000001   0.300194  -0.041435  -0.041431
    34  N   -0.000066  -0.000066   0.000162   0.000000   0.000000   0.000000
    35  N   -0.041431  -0.041435  -0.032345  -0.000000   0.000000   0.000000
    36  C    0.377173   0.377180   0.376133   0.000000  -0.000000  -0.000000
    37  H    0.524168  -0.040000  -0.024997  -0.000000   0.000000  -0.000000
    38  H   -0.040000   0.524165  -0.025004  -0.000000  -0.000000   0.000000
    39  H   -0.024997  -0.025004   0.468457  -0.000000   0.000000   0.000000
    40  C   -0.000000  -0.000000  -0.000000   5.060641   0.377180   0.377173
    41  H    0.000000  -0.000000   0.000000   0.377180   0.524165  -0.040000
    42  H   -0.000000   0.000000   0.000000   0.377173  -0.040000   0.524169
    43  H    0.000000   0.000000  -0.000024   0.376133  -0.025004  -0.024996
    44  Co   0.000673   0.000675   0.008581  -0.007485   0.000676   0.000672
              43         44
     1  C   -0.000013   0.255737
     2  C   -0.000008  -0.057663
     3  C    0.000000   0.006707
     4  C   -0.000000   0.002133
     5  C    0.000000   0.006707
     6  C    0.000001  -0.057663
     7  H    0.000000  -0.000612
     8  H    0.000000   0.000134
     9  H    0.000000  -0.000612
    10  C   -0.000000   0.007154
    11  C   -0.000002   0.362618
    12  C   -0.000000   0.005879
    13  C   -0.000000  -0.001275
    14  C    0.000000  -0.001368
    15  C   -0.000000   0.000168
    16  H    0.000000   0.000045
    17  C   -0.000000   0.000151
    18  H    0.000000   0.000024
    19  H   -0.000000   0.000013
    20  H    0.000000  -0.000011
    21  C    0.000014   0.007154
    22  C    0.000637   0.362618
    23  C    0.002652   0.005879
    24  C    0.000005  -0.001275
    25  C    0.000011  -0.001368
    26  C   -0.000000   0.000168
    27  H   -0.000000   0.000045
    28  C    0.000001   0.000151
    29  H   -0.000032   0.000024
    30  H   -0.000000   0.000013
    31  H   -0.000000  -0.000011
    32  N    0.000162  -0.072735
    33  N   -0.032345  -0.055050
    34  N   -0.000000  -0.072736
    35  N    0.000001  -0.055050
    36  C   -0.000000  -0.007485
    37  H    0.000000   0.000673
    38  H    0.000000   0.000675
    39  H   -0.000024   0.008581
    40  C    0.376133  -0.007485
    41  H   -0.025004   0.000676
    42  H   -0.024996   0.000672
    43  H    0.468457   0.008581
    44  Co   0.008581  16.487323
          Atomic-Atomic Spin Densities.
               1          2          3          4          5          6
     1  C   -0.000000   0.000000   0.000000   0.000000   0.000000   0.000000
     2  C    0.000000   0.000000  -0.000000  -0.000000  -0.000000   0.000000
     3  C    0.000000  -0.000000  -0.000000   0.000000   0.000000  -0.000000
     4  C    0.000000  -0.000000   0.000000  -0.000000   0.000000  -0.000000
     5  C    0.000000  -0.000000   0.000000   0.000000  -0.000000  -0.000000
     6  C    0.000000   0.000000  -0.000000  -0.000000  -0.000000   0.000000
     7  H   -0.000000   0.000000   0.000000   0.000000  -0.000000   0.000000
     8  H    0.000000   0.000000  -0.000000  -0.000000  -0.000000   0.000000
     9  H   -0.000000   0.000000  -0.000000   0.000000   0.000000   0.000000
    10  C   -0.000000   0.000000   0.000000  -0.000000  -0.000000  -0.000000
    11  C    0.000000  -0.000000   0.000000  -0.000000   0.000000   0.000000
    12  C    0.000000   0.000000  -0.000000  -0.000000  -0.000000  -0.000000
    13  C   -0.000000  -0.000000   0.000000  -0.000000  -0.000000  -0.000000
    14  C   -0.000000  -0.000000   0.000000  -0.000000  -0.000000  -0.000000
    15  C   -0.000000  -0.000000   0.000000  -0.000000   0.000000   0.000000
    16  H   -0.000000   0.000000  -0.000000   0.000000  -0.000000   0.000000
    17  C    0.000000   0.000000  -0.000000  -0.000000  -0.000000  -0.000000
    18  H    0.000000  -0.000000  -0.000000   0.000000   0.000000   0.000000
    19  H    0.000000   0.000000  -0.000000   0.000000  -0.000000  -0.000000
    20  H   -0.000000   0.000000   0.000000  -0.000000  -0.000000  -0.000000
    21  C   -0.000000  -0.000000  -0.000000  -0.000000   0.000000   0.000000
    22  C    0.000000   0.000000   0.000000  -0.000000   0.000000  -0.000000
    23  C    0.000000  -0.000000  -0.000000  -0.000000  -0.000000   0.000000
    24  C   -0.000000  -0.000000  -0.000000  -0.000000   0.000000  -0.000000
    25  C   -0.000000  -0.000000  -0.000000  -0.000000   0.000000  -0.000000
    26  C   -0.000000   0.000000   0.000000  -0.000000   0.000000  -0.000000
    27  H   -0.000000   0.000000  -0.000000   0.000000  -0.000000   0.000000
    28  C    0.000000  -0.000000  -0.000000  -0.000000  -0.000000   0.000000
    29  H    0.000000   0.000000   0.000000   0.000000  -0.000000  -0.000000
    30  H    0.000000  -0.000000  -0.000000   0.000000  -0.000000   0.000000
    31  H   -0.000000  -0.000000  -0.000000  -0.000000   0.000000   0.000000
    32  N   -0.000000  -0.000000   0.000000   0.000000  -0.000000   0.000000
    33  N   -0.000000  -0.000000  -0.000000  -0.000000   0.000000  -0.000000
    34  N   -0.000000   0.000000  -0.000000   0.000000   0.000000  -0.000000
    35  N   -0.000000  -0.000000   0.000000  -0.000000  -0.000000  -0.000000
    36  C   -0.000000   0.000000   0.000000  -0.000000   0.000000   0.000000
    37  H   -0.000000   0.000000  -0.000000  -0.000000  -0.000000  -0.000000
    38  H    0.000000  -0.000000   0.000000   0.000000   0.000000   0.000000
    39  H    0.000000   0.000000  -0.000000   0.000000   0.000000  -0.000000
    40  C   -0.000000   0.000000   0.000000  -0.000000   0.000000   0.000000
    41  H    0.000000   0.000000   0.000000   0.000000   0.000000  -0.000000
    42  H   -0.000000  -0.000000  -0.000000  -0.000000  -0.000000   0.000000
    43  H    0.000000  -0.000000   0.000000   0.000000  -0.000000   0.000000
    44  Co   0.000000  -0.000000   0.000000   0.000000   0.000000  -0.000000
               7          8          9         10         11         12
     1  C   -0.000000   0.000000  -0.000000  -0.000000   0.000000   0.000000
     2  C    0.000000   0.000000   0.000000   0.000000  -0.000000   0.000000
     3  C    0.000000  -0.000000  -0.000000   0.000000   0.000000  -0.000000
     4  C    0.000000  -0.000000   0.000000  -0.000000  -0.000000  -0.000000
     5  C   -0.000000  -0.000000   0.000000  -0.000000   0.000000  -0.000000
     6  C    0.000000   0.000000   0.000000  -0.000000   0.000000  -0.000000
     7  H   -0.000000   0.000000  -0.000000   0.000000  -0.000000   0.000000
     8  H    0.000000   0.000000   0.000000   0.000000  -0.000000   0.000000
     9  H   -0.000000   0.000000  -0.000000   0.000000  -0.000000   0.000000
    10  C    0.000000   0.000000   0.000000   0.000000  -0.000000   0.000000
    11  C   -0.000000  -0.000000  -0.000000  -0.000000  -0.000000  -0.000000
    12  C    0.000000   0.000000   0.000000   0.000000  -0.000000   0.000000
    13  C    0.000000  -0.000000   0.000000  -0.000000  -0.000000   0.000000
    14  C    0.000000   0.000000   0.000000   0.000000   0.000000  -0.000000
    15  C   -0.000000  -0.000000   0.000000   0.000000   0.000000  -0.000000
    16  H    0.000000   0.000000   0.000000   0.000000  -0.000000   0.000000
    17  C    0.000000   0.000000   0.000000  -0.000000  -0.000000   0.000000
    18  H   -0.000000  -0.000000  -0.000000  -0.000000  -0.000000   0.000000
    19  H    0.000000   0.000000   0.000000  -0.000000  -0.000000   0.000000
    20  H    0.000000   0.000000   0.000000   0.000000   0.000000  -0.000000
    21  C    0.000000   0.000000   0.000000   0.000000  -0.000000   0.000000
    22  C   -0.000000  -0.000000  -0.000000  -0.000000  -0.000000  -0.000000
    23  C    0.000000   0.000000   0.000000   0.000000  -0.000000  -0.000000
    24  C    0.000000  -0.000000   0.000000  -0.000000   0.000000  -0.000000
    25  C    0.000000   0.000000   0.000000  -0.000000   0.000000   0.000000
    26  C    0.000000  -0.000000  -0.000000  -0.000000  -0.000000   0.000000
    27  H    0.000000   0.000000   0.000000   0.000000  -0.000000  -0.000000
    28  C    0.000000   0.000000   0.000000   0.000000  -0.000000  -0.000000
    29  H   -0.000000  -0.000000  -0.000000   0.000000  -0.000000  -0.000000
    30  H    0.000000   0.000000   0.000000   0.000000   0.000000  -0.000000
    31  H    0.000000   0.000000   0.000000  -0.000000   0.000000   0.000000
    32  N   -0.000000   0.000000  -0.000000   0.000000  -0.000000  -0.000000
    33  N    0.000000   0.000000   0.000000  -0.000000   0.000000   0.000000
    34  N   -0.000000   0.000000  -0.000000   0.000000   0.000000  -0.000000
    35  N    0.000000   0.000000   0.000000  -0.000000   0.000000   0.000000
    36  C    0.000000  -0.000000  -0.000000  -0.000000   0.000000  -0.000000
    37  H    0.000000   0.000000   0.000000   0.000000   0.000000   0.000000
    38  H   -0.000000  -0.000000  -0.000000  -0.000000  -0.000000  -0.000000
    39  H   -0.000000   0.000000  -0.000000   0.000000  -0.000000  -0.000000
    40  C   -0.000000  -0.000000   0.000000  -0.000000   0.000000   0.000000
    41  H   -0.000000  -0.000000  -0.000000   0.000000  -0.000000  -0.000000
    42  H    0.000000   0.000000   0.000000  -0.000000   0.000000   0.000000
    43  H   -0.000000   0.000000  -0.000000   0.000000  -0.000000  -0.000000
    44  Co  -0.000000  -0.000000  -0.000000  -0.000000  -0.000000  -0.000000
              13         14         15         16         17         18
     1  C   -0.000000  -0.000000  -0.000000  -0.000000   0.000000   0.000000
     2  C   -0.000000  -0.000000  -0.000000   0.000000   0.000000  -0.000000
     3  C    0.000000   0.000000   0.000000  -0.000000  -0.000000  -0.000000
     4  C   -0.000000  -0.000000  -0.000000   0.000000  -0.000000   0.000000
     5  C   -0.000000  -0.000000   0.000000  -0.000000  -0.000000   0.000000
     6  C   -0.000000  -0.000000   0.000000   0.000000  -0.000000   0.000000
     7  H    0.000000   0.000000  -0.000000   0.000000   0.000000  -0.000000
     8  H   -0.000000   0.000000  -0.000000   0.000000   0.000000  -0.000000
     9  H    0.000000   0.000000   0.000000   0.000000   0.000000  -0.000000
    10  C   -0.000000   0.000000   0.000000   0.000000  -0.000000  -0.000000
    11  C   -0.000000   0.000000   0.000000  -0.000000  -0.000000  -0.000000
    12  C    0.000000  -0.000000  -0.000000   0.000000   0.000000   0.000000
    13  C   -0.000000  -0.000000   0.000000   0.000000   0.000000   0.000000
    14  C   -0.000000  -0.000000   0.000000   0.000000   0.000000   0.000000
    15  C    0.000000   0.000000  -0.000000  -0.000000  -0.000000  -0.000000
[...]
              Bcc     0.0000     0.000     0.000     0.000  0.5477 -0.1573  0.8218
 
              Baa    -0.0000    -0.000    -0.000    -0.000 -0.1148 -0.4878  0.8654
    41 H(1)   Bbb    -0.0000    -0.000    -0.000    -0.000 -0.3938  0.8221  0.4112
              Bcc     0.0000     0.000     0.000     0.000  0.9120  0.2936  0.2865
 
              Baa    -0.0000    -0.000    -0.000    -0.000  0.9607  0.1947 -0.1980
    42 H(1)   Bbb     0.0000     0.000     0.000     0.000 -0.2651  0.8555 -0.4448
              Bcc     0.0000     0.000     0.000     0.000  0.0828  0.4798  0.8735
 
              Baa    -0.0000    -0.000    -0.000    -0.000 -0.6725 -0.2121  0.7090
    43 H(1)   Bbb    -0.0000    -0.000    -0.000    -0.000 -0.4648  0.8666 -0.1816
              Bcc     0.0000     0.000     0.000     0.000  0.5759  0.4517  0.6814
 
              Baa    -0.0000    -0.000    -0.000    -0.000 -0.0535  0.6919  0.7201
    44 Co(59) Bbb    -0.0000    -0.000    -0.000    -0.000  0.9985  0.0476  0.0284
              Bcc     0.0000     0.001     0.000     0.000 -0.0146  0.7205 -0.6933
 

 ---------------------------------------------------------------------------------

   1 Symmetry operations used in ECPInt.
 ECPInt:  NShTT=   11781 NPrTT=   71406 LenC2=    9520 LenP2D=   32016.
 LDataN:  DoStor=T MaxTD1= 7 Len=  274
 Calling FoFJK, ICntrl=      2127 FMM=F ISym2X=0 I1Cent= 0 IOpClX= 1 NMat=1 NMatS=1 NMatT=0.
 -------------------------------------------------------------------
 Center     Atomic                   Forces (Hartrees/Bohr)
 Number     Number              X              Y              Z
 -------------------------------------------------------------------
      1        6          -0.000002002   -0.090851387   -0.000008968
      2        6           0.070074235    0.040845796    0.000005996
      3        6          -0.006463007    0.004004681    0.000000508
      4        6           0.000001061    0.001916453   -0.000001541
      5        6           0.006461509    0.004007739    0.000000438
      6        6          -0.070068260    0.040840262    0.000004785
      7        1          -0.000224864    0.005522652   -0.000001038
      8        1          -0.000000020   -0.000331539   -0.000000102
      9        1           0.000224528    0.005522509   -0.000001082
     10        6          -0.011360323   -0.006526691    0.000000625
     11        6           0.000603518    0.004958682   -0.000019809
     12        6           0.013870334    0.005544135   -0.000000695
     13        6           0.012636318    0.003898947   -0.000001463
     14        6           0.001340939    0.006317947   -0.000000501
     15        6          -0.013031807    0.007233822    0.000001018
     16        1           0.000390172   -0.000232716   -0.000000348
     17        6           0.000186009   -0.012574328   -0.000000136
     18        1           0.001028542    0.000250050    0.000000080
     19        1           0.000150303   -0.000333216   -0.000000081
     20        1           0.000250563    0.000188995    0.000000162
     21        6           0.011352139   -0.006511973   -0.000000448
     22        6          -0.000603396    0.004958702   -0.000022318
     23        6          -0.013866291    0.005541089   -0.000000953
     24        6          -0.012630616    0.003885082   -0.000000981
     25        6          -0.001346363    0.006321374   -0.000001062
     26        6           0.013031141    0.007241311    0.000000393
     27        1          -0.000389231   -0.000228958   -0.000000172
     28        6          -0.000184394   -0.012582124    0.000000228
     29        1          -0.001028303    0.000249755   -0.000000131
     30        1          -0.000148823   -0.000335290   -0.000000122
     31        1          -0.000250535    0.000189322    0.000000176
     32        7          -0.022345460   -0.060849011    0.000008518
     33        7           0.027151655    0.022733381    0.000012019
     34        7           0.022343164   -0.060842090    0.000005435
     35        7          -0.027152674    0.022733538    0.000010039
     36        6           0.000051715   -0.011128574   -0.000000736
     37        1           0.000698674    0.001583320    0.000854568
     38        1           0.000698404    0.001584015   -0.000855613
     39        1           0.000689112    0.002343355    0.000001421
     40        6          -0.000051022   -0.011128118   -0.000000763
     41        1          -0.000698201    0.001584756   -0.000855834
     42        1          -0.000698803    0.001583381    0.000854368
     43        1          -0.000688991    0.002343010    0.000001596
     44       27          -0.000000649    0.058527953    0.000012524
 -------------------------------------------------------------------
 Cartesian Forces:  Max     0.090851387 RMS     0.017019982

 GradGradGradGradGradGradGradGradGradGradGradGradGradGradGradGradGradGrad
 Berny optimization.
 Search for a local minimum.
 Step number   1 out of a maximum of    2
 All quantities printed in internal units (Hartrees-Bohrs-Radians)
 Second derivative matrix not updated -- first step.
 ITU=  0
     Eigenvalues ---    0.00055   0.00058   0.00198   0.00245   0.00245
     Eigenvalues ---    0.00385   0.00442   0.00611   0.00660   0.00669
     Eigenvalues ---    0.00673   0.00820   0.00843   0.01320   0.01568
     Eigenvalues ---    0.01806   0.02019   0.02040   0.02533   0.02537
     Eigenvalues ---    0.03056   0.03119   0.04097   0.04198   0.04424
     Eigenvalues ---    0.04498   0.04673   0.05372   0.05525   0.06163
     Eigenvalues ---    0.06213   0.06901   0.06931   0.07034   0.07057
     Eigenvalues ---    0.07059   0.07277   0.07673   0.07742   0.09585
     Eigenvalues ---    0.09933   0.10172   0.10369   0.11523   0.11904
     Eigenvalues ---    0.11972   0.12188   0.12261   0.12811   0.13364
     Eigenvalues ---    0.13367   0.13444   0.13653   0.14754   0.15387
     Eigenvalues ---    0.15606   0.15872   0.19436   0.20028   0.20072
     Eigenvalues ---    0.21056   0.21989   0.24073   0.24790   0.28626
     Eigenvalues ---    0.29544   0.29854   0.30334   0.30799   0.31618
     Eigenvalues ---    0.31938   0.34724   0.35738   0.36569   0.37516
     Eigenvalues ---    0.37785   0.41191   0.41789   0.44597   0.47237
     Eigenvalues ---    0.48410   0.48488   0.49239   0.50988   0.52009
     Eigenvalues ---    0.53561   0.54243   0.54942   0.62782   0.63531
     Eigenvalues ---    0.68736   0.71307   0.72751   0.74025   0.86647
     Eigenvalues ---    0.90382   0.91049   0.91297   0.93123   0.94434
     Eigenvalues ---    0.95290   0.96947   1.00111   1.04205   1.12396
     Eigenvalues ---    1.15777   1.15836   1.18405   1.20743   1.24422
     Eigenvalues ---    1.31036   1.37788   1.37953   1.45625   1.47261
     Eigenvalues ---    1.49768   1.51044   1.53687   1.60946   1.64484
     Eigenvalues ---    1.65937   1.67003   1.77783   1.79068   1.84796
     Eigenvalues ---    1.88233
 Quadratic step=6.941D-01 exceeds max=3.000D-01 adjusted using Lamda=-5.088D-02.
 Angle between NR and scaled steps=  41.82 degrees.
 Angle between quadratic step and forces=  42.23 degrees.
 Linear search not attempted -- first point.
 B after Tr=    -0.000000   -0.000476   -0.000001
         Rot=    1.000000   -0.000000   -0.000000   -0.000000 Ang=  -0.00 deg.
 Variable       Old X    -DE/DX   Delta X   Delta X   Delta X     New X
                                 (Linear)    (Quad)   (Total)
    X1        0.00000  -0.00000   0.00000  -0.00000  -0.00000   0.00000
    Y1        1.50375  -0.09085   0.00000  -0.16334  -0.16381   1.33993
    Z1        0.00022  -0.00001   0.00000  -0.00003  -0.00003   0.00019
    X2       -2.41854   0.07007   0.00000   0.09169   0.09169  -2.32684
    Y2        2.56939   0.04085   0.00000  -0.02140  -0.02188   2.54751
    Z2        0.00005   0.00001   0.00000   0.00002   0.00002   0.00007
    X3       -2.35319  -0.00646   0.00000   0.02368   0.02368  -2.32950
    Y3        5.20721   0.00400   0.00000  -0.00120  -0.00168   5.20553
    Z3       -0.00003   0.00000   0.00000   0.00001   0.00002  -0.00001
    X4        0.00000   0.00000   0.00000   0.00000   0.00000   0.00000
    Y4        6.43421   0.00192   0.00000   0.02059   0.02011   6.45432
    Z4        0.00001  -0.00000   0.00000  -0.00000  -0.00000   0.00001
    X5        2.35319   0.00646   0.00000  -0.02369  -0.02369   2.32951
    Y5        5.20721   0.00401   0.00000  -0.00120  -0.00168   5.20553
    Z5        0.00006   0.00000   0.00000   0.00001   0.00001   0.00008
    X6        2.41854  -0.07007   0.00000  -0.09169  -0.09169   2.32684
    Y6        2.56940   0.04084   0.00000  -0.02140  -0.02188   2.54751
    Z6        0.00012   0.00000   0.00000   0.00002   0.00002   0.00014
    X7       -4.07893  -0.00022   0.00000   0.01931   0.01931  -4.05963
    Y7        6.30708   0.00552   0.00000   0.01118   0.01070   6.31778
    Z7       -0.00008  -0.00000   0.00000  -0.00000  -0.00000  -0.00008
    X8        0.00000  -0.00000   0.00000  -0.00000  -0.00000   0.00000
    Y8        8.48852  -0.00033   0.00000   0.01719   0.01672   8.50524
    Z8       -0.00002  -0.00000   0.00000  -0.00001  -0.00001  -0.00002
    X9        4.07895   0.00022   0.00000  -0.01931  -0.01931   4.05963
    Y9        6.30708   0.00552   0.00000   0.01118   0.01070   6.31778
    Z9        0.00009  -0.00000   0.00000  -0.00001  -0.00000   0.00008
   X10        6.97672  -0.01136   0.00000  -0.03204  -0.03204   6.94468
   Y10        1.09908  -0.00653   0.00000  -0.01408  -0.01456   1.08452
   Z10       -0.00006   0.00000   0.00000   0.00001   0.00001  -0.00005
   X11        3.62714   0.00060   0.00000  -0.03951  -0.03951   3.58763
   Y11       -1.71925   0.00496   0.00000   0.00756   0.00708  -1.71216
   Z11        0.00026  -0.00002   0.00000  -0.00005  -0.00006   0.00020
   X12        7.91346   0.01387   0.00000  -0.01109  -0.01109   7.90237
   Y12       -1.40375   0.00554   0.00000   0.00761   0.00713  -1.39662
   Z12       -0.00018  -0.00000   0.00000   0.00001   0.00001  -0.00017
   X13        8.59659   0.01264   0.00000  -0.01611  -0.01611   8.58048
   Y13        3.14557   0.00390   0.00000  -0.00292  -0.00340   3.14217
   Z13       -0.00011  -0.00000   0.00000  -0.00000  -0.00000  -0.00011
   X14       10.49269   0.00134   0.00000  -0.01060  -0.01060  10.48209
   Y14       -1.88939   0.00632   0.00000   0.00469   0.00422  -1.88517
   Z14       -0.00037  -0.00000   0.00000   0.00000   0.00000  -0.00037
   X15       11.21021  -0.01303   0.00000  -0.03016  -0.03016  11.18005
   Y15        2.65334   0.00723   0.00000  -0.00103  -0.00151   2.65183
   Z15       -0.00032   0.00000   0.00000  -0.00000   0.00000  -0.00032
   X16        7.89644   0.00039   0.00000  -0.00609  -0.00609   7.89035
   Y16        5.06967  -0.00023   0.00000  -0.00054  -0.00101   5.06866
   Z16        0.00001  -0.00000   0.00000  -0.00001  -0.00001   0.00001
   X17       12.12832   0.00019   0.00000  -0.01349  -0.01349  12.11483
   Y17        0.19851  -0.01257   0.00000  -0.01024  -0.01072   0.18779
   Z17       -0.00046  -0.00000   0.00000   0.00000   0.00000  -0.00046
   X18       11.20250   0.00103   0.00000  -0.00134  -0.00134  11.20117
   Y18       -3.81365   0.00025   0.00000   0.00674   0.00626  -3.80739
   Z18       -0.00045   0.00000   0.00000   0.00000   0.00000  -0.00045
   X19       12.51430   0.00015   0.00000  -0.02196  -0.02196  12.49234
   Y19        4.23764  -0.00033   0.00000  -0.00502  -0.00549   4.23215
   Z19       -0.00037  -0.00000   0.00000  -0.00000  -0.00000  -0.00037
   X20       14.15352   0.00025   0.00000  -0.01021  -0.01021  14.14331
   Y20       -0.13086   0.00019   0.00000  -0.00256  -0.00304  -0.13390
   Z20       -0.00062   0.00000   0.00000   0.00000   0.00000  -0.00062
   X21       -6.97670   0.01135   0.00000   0.03203   0.03203  -6.94467
   Y21        1.09906  -0.00651   0.00000  -0.01407  -0.01455   1.08451
   Z21       -0.00008  -0.00000   0.00000   0.00001   0.00001  -0.00007
   X22       -3.62713  -0.00060   0.00000   0.03951   0.03951  -3.58762
   Y22       -1.71925   0.00496   0.00000   0.00756   0.00708  -1.71217
   Z22        0.00019  -0.00002   0.00000  -0.00005  -0.00006   0.00014
   X23       -7.91345  -0.01387   0.00000   0.01109   0.01109  -7.90236
   Y23       -1.40376   0.00554   0.00000   0.00761   0.00713  -1.39663
   Z23       -0.00013  -0.00000   0.00000   0.00001   0.00001  -0.00013
   X24       -8.59659  -0.01263   0.00000   0.01611   0.01611  -8.58048
   Y24        3.14557   0.00389   0.00000  -0.00293  -0.00341   3.14216
   Z24       -0.00011  -0.00000   0.00000  -0.00000  -0.00000  -0.00011
   X25      -10.49268  -0.00135   0.00000   0.01059   0.01059 -10.48208
   Y25       -1.88941   0.00632   0.00000   0.00470   0.00422  -1.88519
   Z25       -0.00019  -0.00000   0.00000  -0.00000  -0.00000  -0.00019
   X26      -11.21021   0.01303   0.00000   0.03017   0.03017 -11.18005
   Y26        2.65332   0.00724   0.00000  -0.00103  -0.00151   2.65182
   Z26       -0.00019   0.00000   0.00000  -0.00000  -0.00000  -0.00019
   X27       -7.89644  -0.00039   0.00000   0.00610   0.00610  -7.89034
   Y27        5.06966  -0.00023   0.00000  -0.00053  -0.00101   5.06864
   Z27       -0.00005  -0.00000   0.00000  -0.00000  -0.00000  -0.00005
   X28      -12.12832  -0.00018   0.00000   0.01349   0.01349 -12.11482
   Y28        0.19850  -0.01258   0.00000  -0.01025  -0.01072   0.18778
   Z28       -0.00024   0.00000   0.00000   0.00000  -0.00000  -0.00024
   X29      -11.20249  -0.00103   0.00000   0.00134   0.00134 -11.20115
   Y29       -3.81366   0.00025   0.00000   0.00674   0.00626  -3.80740
   Z29       -0.00019  -0.00000   0.00000  -0.00000  -0.00000  -0.00020
   X30      -12.51430  -0.00015   0.00000   0.02197   0.02197 -12.49234
   Y30        4.23762  -0.00034   0.00000  -0.00502  -0.00549   4.23213
   Z30       -0.00021  -0.00000   0.00000  -0.00000  -0.00000  -0.00021
   X31      -14.15352  -0.00025   0.00000   0.01021   0.01021 -14.14330
   Y31       -0.13088   0.00019   0.00000  -0.00256  -0.00304  -0.13392
   Z31       -0.00029   0.00000   0.00000   0.00000   0.00000  -0.00029
   X32       -4.35732  -0.02235   0.00000   0.02995   0.02995  -4.32737
   Y32        0.88787  -0.06085   0.00000  -0.05862  -0.05910   0.82877
   Z32        0.00003   0.00001   0.00000   0.00002   0.00002   0.00005
   X33       -5.89528   0.02715   0.00000   0.05381   0.05381  -5.84147
   Y33       -3.03222   0.02273   0.00000   0.03121   0.03074  -3.00149
   Z33       -0.00009   0.00001   0.00000   0.00002   0.00002  -0.00007
   X34        4.35733   0.02234   0.00000  -0.02995  -0.02995   4.32738
   Y34        0.88787  -0.06084   0.00000  -0.05862  -0.05910   0.82878
   Z34        0.00014   0.00001   0.00000   0.00001   0.00001   0.00015
   X35        5.89530  -0.02715   0.00000  -0.05381  -0.05381   5.84149
   Y35       -3.03221   0.02273   0.00000   0.03121   0.03074  -3.00148
   Z35       -0.00007   0.00001   0.00000   0.00001   0.00001  -0.00005
   X36        6.04986   0.00005   0.00000  -0.02078  -0.02078   6.02908
   Y36       -5.72451  -0.01113   0.00000   0.01074   0.01026  -5.71425
   Z36        0.00001  -0.00000   0.00000   0.00001   0.00000   0.00002
   X37        7.02746   0.00070   0.00000  -0.00385  -0.00385   7.02362
   Y37       -6.42816   0.00158   0.00000   0.02557   0.02510  -6.40307
   Z37       -1.68819   0.00085   0.00000   0.00433   0.00433  -1.68386
   X38        7.02658   0.00070   0.00000  -0.00384  -0.00384   7.02274
   Y38       -6.42819   0.00158   0.00000   0.02557   0.02509  -6.40310
   Z38        1.68873  -0.00086   0.00000  -0.00432  -0.00432   1.68441
   X39        4.13359   0.00069   0.00000  -0.01274  -0.01274   4.12085
   Y39       -6.49952   0.00234   0.00000   0.00638   0.00591  -6.49361
   Z39       -0.00052   0.00000   0.00000   0.00001   0.00001  -0.00051
   X40       -6.04985  -0.00005   0.00000   0.02078   0.02078  -6.02907
   Y40       -5.72452  -0.01113   0.00000   0.01074   0.01026  -5.71426
   Z40        0.00008  -0.00000   0.00000   0.00001   0.00000   0.00009
   X41       -7.02645  -0.00070   0.00000   0.00384   0.00384  -7.02260
   Y41       -6.42816   0.00158   0.00000   0.02557   0.02509  -6.40307
   Z41        1.68889  -0.00086   0.00000  -0.00432  -0.00432   1.68456
   X42       -7.02757  -0.00070   0.00000   0.00385   0.00385  -7.02372
   Y42       -6.42822   0.00158   0.00000   0.02558   0.02510  -6.40312
   Z42       -1.68804   0.00085   0.00000   0.00433   0.00433  -1.68371
   X43       -4.13358  -0.00069   0.00000   0.01274   0.01274  -4.12084
   Y43       -6.49952   0.00234   0.00000   0.00638   0.00590  -6.49362
   Z43       -0.00058   0.00000   0.00000   0.00002   0.00001  -0.00056
   X44        0.00001  -0.00000   0.00000  -0.00000  -0.00000   0.00001
   Y44       -2.36583   0.05853   0.00000   0.10726   0.10679  -2.25904
   Z44        0.00018   0.00001   0.00000  -0.00002  -0.00003   0.00015
         Item               Value     Threshold  Converged?
 Maximum Force            0.090851     0.000450     NO 
 RMS     Force            0.017020     0.000300     NO 
 Maximum Displacement     0.163812     0.001800     NO 
 RMS     Displacement     0.026120     0.001200     NO 
 Predicted change in Energy=-2.401757D-02
 GradGradGradGradGradGradGradGradGradGradGradGradGradGradGradGradGradGrad

 Unable to Open any file for archive entry.
 1\1\GINC-X11P1N5\Force\UPBE1PBE\GenECP\C22H17Co1N4\MAYUMIAO\17-Jul-202
 4\0\\# pbe1pbe em=gd3bj genecp g09default scf=(xqc,maxcycle=64) force 
 guess=read nosymm\\Title Card\\0,1\C,0.00000222,0.79574797,0.00011536\
 C,-1.27983389,1.35966273,0.00002545\C,-1.24525226,2.75553754,-0.000013
 79\C,0.00000141,3.40483806,0.00000774\C,1.2452569,2.75553686,0.0000334
 9\C,1.27983385,1.35966566,0.00006399\H,-2.15847935,3.33756291,-0.00004
 182\H,0.00000146,4.49193267,-0.00000842\H,2.15848487,3.33756144,0.0000
 4737\C,3.69192018,0.58160835,-0.00003018\C,1.91940129,-0.90978597,0.00
 01367\C,4.187623,-0.74283166,-0.00009587\C,4.54911736,1.66456524,-0.00
 005991\C,5.55249347,-0.99982267,-0.00019822\C,5.93218975,1.40408867,-0
 .00017125\H,4.17861496,2.68275375,0.00000651\C,6.41803206,0.10504792,-
 0.00024289\H,5.92810979,-2.0180957,-0.00024055\H,6.62228173,2.24246162
 ,-0.00019658\H,7.48972239,-0.0692482,-0.00032823\C,-3.69191327,0.58159
 772,-0.00004212\C,-1.91939369,-0.90978908,0.00010317\C,-4.18761808,-0.
 74283663,-0.00007004\C,-4.54911881,1.66456419,-0.00005573\C,-5.5524845
 8,-0.99983103,-0.00010043\C,-5.9321889,1.40407826,-0.00010089\H,-4.178
 61579,2.68274637,-0.00002424\C,-6.41802884,0.10504204,-0.00012447\H,-5
 .92810226,-2.01810313,-0.00010161\H,-6.62228457,2.24245336,-0.00010903
 \H,-7.48971815,-0.06926037,-0.00015378\N,-2.3057927,0.46984284,0.00001
 406\N,-3.1196499,-1.6045834,-0.00004723\N,2.3057974,0.46984205,0.00007
 652\N,3.11965825,-1.60457888,-0.0000346\C,3.20144785,-3.02927919,0.000
 00765\H,3.71877369,-3.40163714,-0.89335309\H,3.71830855,-3.40165034,0.
 89363775\H,2.18740233,-3.43939646,-0.00027454\C,-3.20144033,-3.0292846
 7,0.00004384\H,-3.71823548,-3.40163723,0.89372077\H,-3.71882932,-3.401
 66662,-0.89326968\H,-2.1873939,-3.43939898,-0.00030443\Co,0.00000499,-
 1.25194355,0.00009313\\Version=ES64L-G16RevC.01\HF=-1212.1176361\S2=0.
 \S2-1=0.\S2A=0.\RMSD=3.892e-09\RMSF=1.702e-02\Dipole=0.0000048,-1.4398
 802,-0.0001182\Quadrupole=13.5078099,7.237668,-20.7454778,0.0000577,-0
 .0003946,0.0003991\PG=C01 [X(C22H17Co1N4)]\\@
 The archive entry for this job was punched.


 Life may have no meaning.  Or even worse, it may have a
 meaning of which I disapprove.
                                 -- Ashleigh Brilliant
 Job cpu time:       0 days  0 hours 28 minutes 27.8 seconds.
 Elapsed time:       0 days  0 hours  0 minutes 31.1 seconds.
 File lengths (MBytes):  RWF=    184 Int=      0 D2E=      0 Chk=    162 Scr=      1
 Normal termination of Gaussian 16 at Wed Jul 17 21:16:53 2024.
