 Entering Gaussian System, Link 0=g16
 Input=JOBS/28_B.gjf
 Output=JOBS/28_B.log
 Initial command:
 /data/app/gaussian/C01-avx2//g16/l1.exe "/tmp/Gau-2083885.inp" -scrdir="/tmp/"
 Entering Link 1 = /data/app/gaussian/C01-avx2//g16/l1.exe PID=   2083886.
  
 Copyright (c) 1988-2019, Gaussian, Inc.  All Rights Reserved.
  
 This is part of the Gaussian(R) 16 program.  It is based on
 the Gaussian(R) 09 system (copyright 2009, Gaussian, Inc.),
 the Gaussian(R) 03 system (copyright 2003, Gaussian, Inc.),
 the Gaussian(R) 98 system (copyright 1998, Gaussian, Inc.),
 the Gaussian(R) 94 system (copyright 1995, Gaussian, Inc.),
 the Gaussian 92(TM) system (copyright 1992, Gaussian, Inc.),
 the Gaussian 90(TM) system (copyright 1990, Gaussian, Inc.),
 the Gaussian 88(TM) system (copyright 1988, Gaussian, Inc.),
 the Gaussian 86(TM) system (copyright 1986, Carnegie Mellon
 University), and the Gaussian 82(TM) system (copyright 1983,
 Carnegie Mellon University). Gaussian is a federally registered
 trademark of Gaussian, Inc.
  
 This software contains proprietary and confidential information,
 including trade secrets, belonging to Gaussian, Inc.
  
 This software is provided under written license and may be
 used, copied, transmitted, or stored only in accord with that
 written license.
  
 The following legend is applicable only to US Government
 contracts under FAR:
  
                    RESTRICTED RIGHTS LEGEND
  
 Use, reproduction and disclosure by the US Government is
 subject to restrictions as set forth in subparagraphs (a)
 and (c) of the Commercial Computer Software - Restricted
 Rights clause in FAR 52.227-19.
  
 Gaussian, Inc.
 340 Quinnipiac St., Bldg. 40, Wallingford CT 06492
  
  
 ---------------------------------------------------------------
 Warning -- This program may not be used in any manner that
 competes with the business of Gaussian, Inc. or will provide
 assistance to any competitor of Gaussian, Inc.  The licensee
 of this program is prohibited from giving any competitor of
 Gaussian, Inc. access to this program.  By using this program,
 the user acknowledges that Gaussian, Inc. is engaged in the
 business of creating and licensing software in the field of
 computational chemistry and represents and warrants to the
 licensee that it is not a competitor of Gaussian, Inc. and that
 it will not use this program in any manner prohibited above.
 ---------------------------------------------------------------
  

 Cite this work as:
 Gaussian 16, Revision C.01,
 M. J. Frisch, G. W. Trucks, H. B. Schlegel, G. E. Scuseria, 
 M. A. Robb, J. R. Cheeseman, G. Scalmani, V. Barone, 
 G. A. Petersson, H. Nakatsuji, X. Li, M. Caricato, A. V. Marenich, 
 J. Bloino, B. G. Janesko, R. Gomperts, B. Mennucci, H. P. Hratchian, 
 J. V. Ortiz, A. F. Izmaylov, J. L. Sonnenberg, D. Williams-Young, 
 F. Ding, F. Lipparini, F. Egidi, J. Goings, B. Peng, A. Petrone, 
 T. Henderson, D. Ranasinghe, V. G. Zakrzewski, J. Gao, N. Rega, 
 G. Zheng, W. Liang, M. Hada, M. Ehara, K. Toyota, R. Fukuda, 
 J. Hasegawa, M. Ishida, T. Nakajima, Y. Honda, O. Kitao, H. Nakai, 
 T. Vreven, K. Throssell, J. A. Montgomery, Jr., J. E. Peralta, 
 F. Ogliaro, M. J. Bearpark, J. J. Heyd, E. N. Brothers, K. N. Kudin, 
 V. N. Staroverov, T. A. Keith, R. Kobayashi, J. Normand, 
 K. Raghavachari, A. P. Rendell, J. C. Burant, S. S. Iyengar, 
 J. Tomasi, M. Cossi, J. M. Millam, M. Klene, C. Adamo, R. Cammi, 
 J. W. Ochterski, R. L. Martin, K. Morokuma, O. Farkas, 
 J. B. Foresman, and D. J. Fox, Gaussian, Inc., Wallingford CT, 2019.
 
 ******************************************
 Gaussian 16:  ES64L-G16RevC.01  3-Jul-2019
                17-Jul-2024 
 ******************************************
 %chk=b.chk
 %nprocshared=56
 Will use up to   56 processors via shared memory.
 %mem=96gb
 ----------------------------------------------------------------------
 # pbe1pbe em=gd3bj genecp g09default scf=(xqc,maxcycle=64) force guess
 =read nosymm
 ----------------------------------------------------------------------
 1/10=7,30=1,38=1,158=3,167=1/1,3;
 2/12=2,15=1,17=6,18=5,40=1/2;
 3/5=7,11=2,16=1,17=8,25=1,27=10,30=1,71=1,74=-13,75=-4,116=-2,124=41,158=3/1,2,3;
 4/5=1,60=-1/1;
 5/5=2,7=64,8=3,13=1,38=6,87=10/2,8;
 6/7=2,8=2,9=2,10=2,28=1,87=10/1;
 7/29=1,30=1,87=10/1,2,3,16;
 1/10=7,30=1,158=3,167=1/3;
 99//99;
 Using 2006 physical constants.
 ----------
 Title Card
 ----------
 Symbolic Z-matrix:
 Charge =  0 Multiplicity = 3
 6                     0.        0.79575   0.00012 
 6                    -1.27983   1.35966   0.00003 
 6                    -1.24525   2.75554  -0.00001 
 6                     0.        3.40484   0.00001 
 6                     1.24526   2.75554   0.00003 
 6                     1.27983   1.35967   0.00006 
 1                    -2.15848   3.33756  -0.00004 
 1                     0.        4.49193  -0.00001 
 1                     2.15848   3.33756   0.00005 
 6                     3.69192   0.58161  -0.00003 
 6                     1.9194   -0.90979   0.00014 
 6                     4.18762  -0.74283  -0.0001 
 6                     4.54912   1.66457  -0.00006 
 6                     5.55249  -0.99982  -0.0002 
 6                     5.93219   1.40409  -0.00017 
 1                     4.17861   2.68275   0.00001 
 6                     6.41803   0.10505  -0.00024 
 1                     5.92811  -2.0181   -0.00024 
 1                     6.62228   2.24246  -0.0002 
 1                     7.48972  -0.06925  -0.00033 
 6                    -3.69191   0.5816   -0.00004 
 6                    -1.91939  -0.90979   0.0001 
 6                    -4.18762  -0.74284  -0.00007 
 6                    -4.54912   1.66456  -0.00006 
 6                    -5.55248  -0.99983  -0.0001 
 6                    -5.93219   1.40408  -0.0001 
 1                    -4.17862   2.68275  -0.00002 
 6                    -6.41803   0.10504  -0.00012 
 1                    -5.9281   -2.0181   -0.0001 
 1                    -6.62228   2.24245  -0.00011 
 1                    -7.48972  -0.06926  -0.00015 
 7                    -2.30579   0.46984   0.00001 
 7                    -3.11965  -1.60458  -0.00005 
 7                     2.3058    0.46984   0.00008 
 7                     3.11966  -1.60458  -0.00003 
 6                     3.20145  -3.02928   0.00001 
 1                     3.71877  -3.40164  -0.89335 
 1                     3.71831  -3.40165   0.89364 
 1                     2.1874   -3.4394   -0.00027 
 6                    -3.20144  -3.02928   0.00004 
 1                    -3.71824  -3.40164   0.89372 
 1                    -3.71883  -3.40167  -0.89327 
 1                    -2.18739  -3.4394   -0.0003 
 27                    0.       -1.25194   0.00009 
 

 GradGradGradGradGradGradGradGradGradGradGradGradGradGradGradGradGradGrad
 Berny optimization.
 Initialization pass.
 Trust Radius=3.00D-01 FncErr=1.00D-07 GrdErr=1.00D-07 EigMax=2.50D+02 EigMin=1.00D-04
 Number of steps in this run=      2 maximum allowed number of steps=      2.
 GradGradGradGradGradGradGradGradGradGradGradGradGradGradGradGradGradGrad

                          Input orientation:                          
 ---------------------------------------------------------------------
 Center     Atomic      Atomic             Coordinates (Angstroms)
 Number     Number       Type             X           Y           Z
 ---------------------------------------------------------------------
      1          6           0        0.000002    0.795748    0.000115
      2          6           0       -1.279834    1.359663    0.000025
      3          6           0       -1.245252    2.755538   -0.000014
      4          6           0        0.000001    3.404838    0.000008
      5          6           0        1.245257    2.755537    0.000033
      6          6           0        1.279834    1.359666    0.000064
      7          1           0       -2.158479    3.337563   -0.000042
      8          1           0        0.000001    4.491933   -0.000008
      9          1           0        2.158485    3.337561    0.000047
     10          6           0        3.691920    0.581608   -0.000030
     11          6           0        1.919401   -0.909786    0.000137
     12          6           0        4.187623   -0.742832   -0.000096
     13          6           0        4.549117    1.664565   -0.000060
     14          6           0        5.552493   -0.999823   -0.000198
     15          6           0        5.932190    1.404089   -0.000171
     16          1           0        4.178615    2.682754    0.000007
     17          6           0        6.418032    0.105048   -0.000243
     18          1           0        5.928110   -2.018096   -0.000241
     19          1           0        6.622282    2.242462   -0.000197
     20          1           0        7.489722   -0.069248   -0.000328
     21          6           0       -3.691913    0.581598   -0.000042
     22          6           0       -1.919394   -0.909789    0.000103
     23          6           0       -4.187618   -0.742837   -0.000070
     24          6           0       -4.549119    1.664564   -0.000056
     25          6           0       -5.552485   -0.999831   -0.000100
     26          6           0       -5.932189    1.404078   -0.000101
     27          1           0       -4.178616    2.682746   -0.000024
     28          6           0       -6.418029    0.105042   -0.000124
     29          1           0       -5.928102   -2.018103   -0.000102
     30          1           0       -6.622285    2.242453   -0.000109
     31          1           0       -7.489718   -0.069260   -0.000154
     32          7           0       -2.305793    0.469843    0.000014
     33          7           0       -3.119650   -1.604583   -0.000047
     34          7           0        2.305797    0.469842    0.000077
     35          7           0        3.119658   -1.604579   -0.000035
     36          6           0        3.201448   -3.029279    0.000008
     37          1           0        3.718774   -3.401637   -0.893353
     38          1           0        3.718309   -3.401650    0.893638
     39          1           0        2.187402   -3.439396   -0.000275
     40          6           0       -3.201440   -3.029285    0.000044
     41          1           0       -3.718235   -3.401637    0.893721
     42          1           0       -3.718829   -3.401667   -0.893270
     43          1           0       -2.187394   -3.439399   -0.000304
     44         27           0        0.000005   -1.251944    0.000093
 ---------------------------------------------------------------------
                    Distance matrix (angstroms):
                    1          2          3          4          5
     1  C    0.000000
     2  C    1.398564   0.000000
     3  C    2.321946   1.396303   0.000000
     4  C    2.609090   2.412617   1.404367   0.000000
     5  C    2.321946   2.885229   2.490509   1.404369   0.000000
     6  C    1.398561   2.559668   2.885224   2.412613   1.396299
     7  H    3.334646   2.164280   1.082930   2.159529   3.453140
     8  H    3.696185   3.383651   2.136756   1.087095   2.136757
     9  H    3.334646   3.966626   3.453140   2.159532   1.082930
    10  C    3.698123   5.032267   5.394594   4.647676   3.272938
    11  C    2.567672   3.922436   4.842482   4.722296   3.726803
    12  C    4.461322   5.857778   6.461789   5.894009   4.571225
    13  C    4.631338   5.836920   5.896180   4.870627   3.479327
    14  C    5.835600   7.228269   7.766085   7.087398   5.714456
    15  C    5.963298   7.212160   7.303567   6.260500   4.877884
    16  H    4.584931   5.616514   5.424356   4.240544   2.934261
    17  C    6.455089   7.799436   8.108700   7.216629   5.812288
    18  H    6.562025   7.960132   8.616536   8.034344   6.687053
    19  H    6.778463   7.951274   7.884246   6.723520   5.401448
    20  H    7.539504   8.885207   9.180370   8.256222   6.853668
    21  C    3.698121   2.534465   3.272944   4.647679   5.394596
    22  C    2.567672   2.357848   3.726806   4.722297   4.842482
    23  C    4.461323   3.588274   4.571229   5.894011   6.461791
    24  C    4.631344   3.283472   3.479333   4.870631   5.896186
    25  C    5.835599   4.880856   5.714459   7.087398   7.766085
    26  C    5.963301   4.652567   4.877891   6.260505   7.303572
    27  H    4.584933   3.186454   2.934267   4.240549   5.424361
    28  C    6.455091   5.289151   5.812292   7.216631   8.108703
    29  H    6.562026   5.745929   6.687057   8.034345   8.616538
    30  H    6.778469   5.414896   5.401456   6.723527   7.884254
    31  H    7.539506   6.372165   6.853673   8.256225   9.180374
    32  N    2.328713   1.358076   2.519751   3.732410   4.223074
    33  N    3.936219   3.488793   4.745948   5.901400   6.169527
    34  N    2.328713   3.694392   4.223074   3.732412   2.519751
    35  N    3.936219   5.304928   6.169527   5.901400   4.745945
    36  C    4.987994   6.272535   7.296386   7.186593   6.106618
    37  H    5.678520   6.960904   7.959297   7.807398   6.695313
    38  H    5.678234   6.960609   7.959052   7.807219   6.695182
    39  H    4.766673   5.920532   7.082395   7.185281   6.266166
    40  C    4.987997   4.791183   6.106623   7.186596   7.296388
    41  H    5.678192   5.423511   6.695163   7.807184   7.959003
    42  H    5.678568   5.423738   6.695346   7.807442   7.959353
    43  H    4.766673   4.884123   6.266169   7.185282   7.082395
    44  Co   2.047692   2.908346   4.196495   4.656782   4.196493
                    6          7          8          9         10
     6  C    0.000000
     7  H    3.966620   0.000000
     8  H    3.383647   2.447776   0.000000
     9  H    2.164278   4.316964   2.447779   0.000000
    10  C    2.534469   6.467029   5.377816   3.153839   0.000000
    11  C    2.357850   5.888046   5.732596   4.254071   2.316480
    12  C    3.588277   7.544709   6.703651   4.557083   1.414165
    13  C    3.283470   6.913087   5.356161   2.917883   1.381153
    14  C    4.880861   8.847147   7.809580   5.507467   2.441855
    15  C    4.652568   8.318488   6.687723   4.240185   2.386479
    16  H    3.186455   6.370835   4.553454   2.123605   2.156776
    17  C    5.289154   9.165462   7.774051   5.347232   2.767453
    18  H    5.745933   9.699278   8.804711   6.549285   3.429141
    19  H    5.414894   8.848786   6.993906   4.596164   3.368301
    20  H    6.372167  10.232016   8.769281   6.326804   3.853170
    21  C    5.032262   3.153849   5.377821   6.467031   7.383833
    22  C    3.922433   4.254076   5.732598   5.888046   5.806127
    23  C    5.857777   4.557089   6.703653   7.544711   7.990074
    24  C    5.836921   2.917890   5.356165   6.913094   8.311890
    25  C    7.228264   5.507473   7.809582   8.847148   9.378698
    26  C    7.212159   4.240194   6.687730   8.318495   9.659189
    27  H    5.616513   2.123614   4.553460   6.370842   8.146172
    28  C    7.799434   5.347238   7.774054   9.165466  10.121175
    29  H    7.960130   6.549291   8.804714   9.699280   9.965106
    30  H    7.951276   4.596175   6.993914   8.848795  10.447068
    31  H    8.885205   6.326812   8.769286  10.232021  11.200565
    32  N    3.694388   2.871501   4.636151   5.305995   5.998754
    33  N    5.304925   5.034745   6.848338   7.230733   7.153805
    34  N    1.358082   5.305996   4.636152   2.871501   1.390621
    35  N    3.488796   7.230733   6.848336   5.034740   2.259845
    36  C    4.791183   8.322590   8.174221   6.451700   3.644046
    37  H    5.423710   8.986486   8.771304   6.974917   4.082278
    38  H    5.423538   8.986228   8.771150   6.974850   4.082363
    39  H    4.884125   8.050706   8.227436   6.777020   4.293257
    40  C    6.272536   6.451706   8.174224   8.322591   7.781836
    41  H    6.960555   6.974845   8.771116   8.986172   8.460227
    42  H    6.960960   6.974938   8.771347   8.986547   8.460707
    43  H    5.920531   6.777024   8.227437   8.050705   7.122839
    44  Co   2.908344   5.071748   5.743876   5.071744   4.122154
                   11         12         13         14         15
    11  C    0.000000
    12  C    2.274358   0.000000
    13  C    3.680040   2.434387   0.000000
    14  C    3.634208   1.388854   2.847056   0.000000
    15  C    4.632115   2.766366   1.407387   2.433713   0.000000
    16  H    4.243865   3.425597   1.083504   3.930510   2.170256
    17  C    4.611677   2.386132   2.434119   1.403530   1.386921
    18  H    4.159098   2.157682   3.932380   1.085342   3.422187
    19  H    5.661603   3.852212   2.152202   3.414214   1.085862
    20  H    5.633381   3.370100   3.413688   2.149145   2.143975
    21  C    5.806124   7.990069   8.311883   9.378696   9.659185
    22  C    3.838795   6.109298   6.961963   7.472430   8.185438
    23  C    6.109301   8.375241   9.062347   9.743501  10.345037
    24  C    6.961970   9.062351   9.098236  10.447082  10.484545
    25  C    7.472428   9.743498  10.447075  11.104978  11.733566
    26  C    8.185441  10.345038  10.484543  11.733570  11.864379
    27  H    7.077577   9.040384   8.786923  10.404605  10.191337
    28  C    8.398965  10.639490  11.077473  12.021403  12.418350
    29  H    7.925382  10.195794  11.105592  11.525666  12.344145
    30  H    9.104780  11.214545  11.186339  12.599110  12.582435
    31  H    9.446587  11.696751  12.163047  13.075367  13.502532
    32  N    4.444732   6.605681   6.958244   7.994534   8.290788
    33  N    5.086726   7.357911   8.336506   8.693205   9.538758
    34  N    1.432716   2.238715   2.541623   3.563839   3.744802
    35  N    1.386850   1.372282   3.568005   2.506874   4.118545
    36  C    2.477074   2.490057   4.883481   3.105819   5.206890
    37  H    3.200842   2.843761   5.210936   3.151026   5.365816
    38  H    3.200594   2.843999   5.211092   3.151500   5.366124
    39  H    2.543768   3.357431   5.623889   4.156364   6.122318
    40  C    5.542138   7.734735   9.061091   8.986104  10.152734
    41  H    6.228223   8.388728   9.737267   9.618431  10.817798
    42  H    6.228747   8.389228   9.737734   9.618932  10.818275
    43  H    4.823350   6.921872   8.451688   8.115257   9.454470
    44  Co   1.949655   4.218452   5.403744   5.558210   6.499640
                   16         17         18         19         20
    16  H    0.000000
    17  C    3.414609   0.000000
    18  H    5.015847   2.178936   0.000000
    19  H    2.483015   2.147150   4.316738   0.000000
    20  H    4.305456   1.085771   2.497327   2.469100   0.000000
    21  C    8.146169  10.121171   9.965102  10.447061  11.200561
    22  C    7.077575   8.398962   7.925380   9.104774   9.446585
    23  C    9.040383  10.639489  10.195795  11.214541  11.696752
    24  C    8.786925  11.077477  11.105598  11.186338  12.163051
    25  C   10.404601  12.021399  11.525663  12.599103  13.075364
    26  C   10.191338  12.418351  12.344147  12.582433  13.502533
    27  H    8.357231  10.905663  11.146471  10.809868  11.988477
    28  C   10.905662  12.836061  12.527364  13.214320  13.908843
    29  H   11.146470  12.527362  11.856212  13.253850  13.558615
    30  H   10.809870  13.214324  13.253855  13.244566  14.300095
    31  H   11.988477  13.908842  13.558616  14.300091  14.979441
    32  N    6.851607   8.731449   8.601569   9.102345   9.810338
    33  N    8.464392   9.689696   9.057204  10.474015  10.719890
    34  N    2.899038   4.128383   4.394426   4.666285   5.211880
    35  N    4.416176   3.715117   2.838731   5.202700   4.631922
    36  C    5.795013   4.491149   2.908123   6.284374   5.210670
    37  H    6.166795   4.514475   2.755540   6.409675   5.111004
    38  H    6.166882   4.514916   2.756168   6.409992   5.111520
    39  H    6.437830   5.519177   4.001623   7.207750   6.282714
    40  C    9.332342  10.117227   9.185379  11.148849  11.093366
    41  H   10.008935  10.762896   9.785976  11.814450  11.726997
    42  H   10.009383  10.763387   9.786481  11.814920  11.727489
    43  H    8.832147   9.306796   8.239023  10.483030  10.247170
    44  Co   5.739567   6.559916   5.977409   7.487684   7.582522
                   21         22         23         24         25
    21  C    0.000000
    22  C    2.316476   0.000000
    23  C    1.414160   2.274360   0.000000
    24  C    1.381165   3.680047   2.434391   0.000000
    25  C    2.441852   3.634207   1.388851   2.847059   0.000000
    26  C    2.386485   4.632117   2.766364   1.407386   2.433712
    27  H    2.156781   4.243866   3.425595   1.083498   3.930508
    28  C    2.767456   4.611681   2.386133   2.434119   1.403535
    29  H    3.429138   4.159099   2.157682   3.932383   1.085342
    30  H    3.368311   5.661609   3.852215   2.152202   3.414217
    31  H    3.853172   5.633383   3.370099   3.413689   2.149148
    32  N    1.390618   1.432721   2.238718   2.541628   3.563839
    33  N    2.259839   1.386850   1.372284   3.568012   2.506873
    34  N    5.998752   4.444730   6.605682   6.958250   7.994532
    35  N    7.153801   5.086726   7.357913   8.336512   8.693203
    36  C    7.781829   5.542135   7.734734   9.061095   8.986100
    37  H    8.460641   6.228684   8.389172   9.737681   9.618877
    38  H    8.460279   6.228279   8.388783   9.737329   9.618477
    39  H    7.122833   4.823348   6.921873   8.451694   8.115253
    40  C    3.644041   2.477076   2.490058   4.883488   3.105816
    41  H    4.082360   3.200577   2.844012   5.211104   3.151517
    42  H    4.082276   3.200865   2.843756   5.210941   3.151009
    43  H    4.293250   2.543767   3.357431   5.623894   4.156360
    44  Co   4.122152   1.949657   4.218457   5.403753   5.558210
                   26         27         28         29         30
    26  C    0.000000
    27  H    2.170256   0.000000
    28  C    1.386916   3.414605   0.000000
    29  H    3.422184   5.015844   2.178939   0.000000
    30  H    1.085866   2.483017   2.147149   4.316738   0.000000
    31  H    2.143974   4.305455   1.085771   2.497325   2.469101
    32  N    3.744802   2.899036   4.128385   4.394428   4.666289
    33  N    4.118546   4.416175   3.715121   2.838733   5.202705
    34  N    8.290791   6.851610   8.731450   8.601568   9.102351
    35  N    9.538761   8.464394   9.689700   9.057206  10.474021
    36  C   10.152733   9.332340  10.117228   9.185378  11.148851
    37  H   10.818220  10.009322  10.763337   9.786433  11.814869
    38  H   10.817851  10.008992  10.762947   9.786021  11.814506
    39  H    9.454470   8.832147   9.306798   8.239022  10.483034
    40  C    5.206889   5.795013   4.491152   2.908122   6.284377
    41  H    5.366135   6.166884   4.514936   2.756192   6.410007
    42  H    5.365808   6.166796   4.514465   2.755519   6.409671
    43  H    6.122317   6.437828   5.519179   4.001622   7.207753
    44  Co   6.499644   5.739569   6.559921   5.977412   7.487692
                   31         32         33         34         35
    31  H    0.000000
    32  N    5.211882   0.000000
    33  N    4.631923   2.228364   0.000000
    34  N    9.810339   4.611590   5.808504   0.000000
    35  N   10.719891   5.808506   6.239308   2.228361   0.000000
    36  C   11.093365   6.524841   6.479663   3.611930   1.427046
    37  H   11.727439   7.216776   7.126811   4.216998   2.094368
    38  H   11.727043   7.216427   7.126416   4.216882   2.094397
    39  H   10.247169   5.955750   5.615278   3.911031   2.058071
    40  C    5.210669   3.611935   1.427047   6.524841   6.479666
    41  H    5.111539   4.216878   2.094404   7.216365   7.126360
    42  H    5.110987   4.217015   2.094366   7.216840   7.126872
    43  H    6.282713   3.911034   2.058069   5.955748   5.615280
    44  Co   7.582525   2.877716   3.139522   2.877712   3.139520
                   36         37         38         39         40
    36  C    0.000000
    37  H    1.097438   0.000000
    38  H    1.097442   1.786991   0.000000
    39  H    1.093839   1.773165   1.773183   0.000000
    40  C    6.402888   6.987572   6.987138   5.404426   0.000000
    41  H    6.987087   7.648708   7.436544   5.973040   1.097443
    42  H    6.987621   7.437603   7.648795   5.973478   1.097437
    43  H    5.404425   5.973423   5.973096   4.374796   1.093839
    44  Co   3.661715   4.387331   4.386963   3.093486   3.661720
                   41         42         43         44
    41  H    0.000000
    42  H    1.786991   0.000000
    43  H    1.773184   1.773162   0.000000
    44  Co   4.386920   4.387384   3.093489   0.000000
 Symmetry turned off by external request.
 Stoichiometry    C22H17CoN4(3)
 Framework group  C1[X(C22H17CoN4)]
 Deg. of freedom   126
 Full point group                 C1      NOp   1
 Rotational constants (GHZ):           0.4624769           0.1003606           0.0825518
 General basis read from cards:  (5D, 7F)
 ======================================================================================================
                                       Pseudopotential Parameters
 ======================================================================================================
  Center     Atomic      Valence      Angular      Power
  Number     Number     Electrons     Momentum     of R      Exponent        Coefficient   SO-Coeffient
 ======================================================================================================
    1          6
                                   No pseudopotential on this center.
    2          6
                                   No pseudopotential on this center.
    3          6
                                   No pseudopotential on this center.
    4          6
                                   No pseudopotential on this center.
    5          6
                                   No pseudopotential on this center.
    6          6
                                   No pseudopotential on this center.
    7          1
                                   No pseudopotential on this center.
    8          1
                                   No pseudopotential on this center.
    9          1
                                   No pseudopotential on this center.
   10          6
                                   No pseudopotential on this center.
   11          6
                                   No pseudopotential on this center.
   12          6
                                   No pseudopotential on this center.
   13          6
                                   No pseudopotential on this center.
   14          6
                                   No pseudopotential on this center.
   15          6
                                   No pseudopotential on this center.
   16          1
                                   No pseudopotential on this center.
   17          6
                                   No pseudopotential on this center.
   18          1
                                   No pseudopotential on this center.
   19          1
                                   No pseudopotential on this center.
   20          1
                                   No pseudopotential on this center.
   21          6
                                   No pseudopotential on this center.
   22          6
                                   No pseudopotential on this center.
   23          6
                                   No pseudopotential on this center.
   24          6
                                   No pseudopotential on this center.
   25          6
                                   No pseudopotential on this center.
   26          6
                                   No pseudopotential on this center.
   27          1
                                   No pseudopotential on this center.
   28          6
                                   No pseudopotential on this center.
   29          1
                                   No pseudopotential on this center.
   30          1
                                   No pseudopotential on this center.
   31          1
                                   No pseudopotential on this center.
   32          7
                                   No pseudopotential on this center.
   33          7
                                   No pseudopotential on this center.
   34          7
                                   No pseudopotential on this center.
   35          7
                                   No pseudopotential on this center.
   36          6
                                   No pseudopotential on this center.
   37          1
                                   No pseudopotential on this center.
   38          1
                                   No pseudopotential on this center.
   39          1
                                   No pseudopotential on this center.
   40          6
                                   No pseudopotential on this center.
   41          1
                                   No pseudopotential on this center.
   42          1
                                   No pseudopotential on this center.
   43          1
                                   No pseudopotential on this center.
   44         27           17
                                      F and up 
                                                     2        1.0000000        0.00000000    0.00000000
                                      S - F
                                                     2       23.6600000      283.96056600    0.00000000
                                                     2       10.6100000       47.15684600    0.00000000
                                      P - F
                                                     2       25.0400000      182.21223600    0.00000000
                                                     2       10.4400000       35.23335200    0.00000000
                                      D - F
                                                     2       29.5400000      -26.47533300    0.00000000
                                                     2       10.1800000       -1.82578700    0.00000000
 ======================================================================================================
   441 basis functions,   871 primitive gaussians,   473 cartesian basis functions
    98 alpha electrons       96 beta electrons
       nuclear repulsion energy      2484.3947981267 Hartrees.
 NAtoms=   44 NActive=   44 NUniq=   44 SFac= 1.00D+00 NAtFMM=   60 NAOKFM=F Big=F
 Integral buffers will be    131072 words long.
 Raffenetti 2 integral format.
 Two-electron integral symmetry is turned off.
 Nuclear repulsion after empirical dispersion term =     2484.3357062971 Hartrees.
 One-electron integrals computed using PRISM.
   1 Symmetry operations used in ECPInt.
 ECPInt:  NShTT=   11781 NPrTT=   71406 LenC2=    9520 LenP2D=   32016.
 LDataN:  DoStor=T MaxTD1= 6 Len=  172
 NBasis=   441 RedAO= T EigKep=  3.23D-04  NBF=   441
 NBsUse=   441 1.00D-06 EigRej= -1.00D+00 NBFU=   441
 Initial guess from the checkpoint file:  "b.chk"
 B after Tr=    -0.000000    0.000423   -0.000001
         Rot=    1.000000   -0.000000   -0.000000   -0.000000 Ang=  -0.00 deg.
 Initial guess <Sx>= 0.0000 <Sy>= 0.0000 <Sz>= 1.0000 <S**2>= 2.3172 S= 1.1023
 Requested convergence on RMS density matrix=1.00D-08 within  64 cycles.
 Requested convergence on MAX density matrix=1.00D-06.
 Requested convergence on             energy=1.00D-06.
 No special actions if energy rises.
 Restarting incremental Fock formation.
 SCF Done:  E(UPBE1PBE) =  -1212.11583515     A.U. after   31 cycles
            NFock= 31  Conv=0.75D-09     -V/T= 2.0552
 <Sx>= 0.0000 <Sy>= 0.0000 <Sz>= 1.0000 <S**2>= 2.3103 S= 1.1001
 <L.S>=  0.00000000000    
 Annihilation of the first spin contaminant:
 S**2 before annihilation     2.3103,   after     2.0076
 QCSCF skips out because SCF is already converged.

 **********************************************************************

            Population analysis using the SCF Density.

 **********************************************************************

 Alpha  occ. eigenvalues --  -14.45259 -14.45259 -14.45042 -14.45042 -10.28004
 Alpha  occ. eigenvalues --  -10.28003 -10.27423 -10.27422 -10.27279 -10.27279
 Alpha  occ. eigenvalues --  -10.27133 -10.27133 -10.26581 -10.26581 -10.23647
 Alpha  occ. eigenvalues --  -10.23647 -10.23547 -10.23547 -10.23056 -10.23056
 Alpha  occ. eigenvalues --  -10.22973 -10.22973 -10.22437 -10.22401 -10.22372
 Alpha  occ. eigenvalues --  -10.20914  -3.93484  -2.45451  -2.43735  -2.43232
 Alpha  occ. eigenvalues --   -1.05767  -1.05686  -0.97136  -0.96743  -0.88046
 Alpha  occ. eigenvalues --   -0.87628  -0.85608  -0.80454  -0.78861  -0.77635
 Alpha  occ. eigenvalues --   -0.77635  -0.75533  -0.74889  -0.73234  -0.72359
 Alpha  occ. eigenvalues --   -0.66755  -0.65314  -0.64363  -0.64103  -0.62697
 Alpha  occ. eigenvalues --   -0.61354  -0.58917  -0.57649  -0.56571  -0.53946
 Alpha  occ. eigenvalues --   -0.53084  -0.52259  -0.49752  -0.49670  -0.49148
 Alpha  occ. eigenvalues --   -0.48539  -0.48109  -0.47188  -0.46739  -0.45906
 Alpha  occ. eigenvalues --   -0.45703  -0.45321  -0.44872  -0.44824  -0.44157
 Alpha  occ. eigenvalues --   -0.42758  -0.41923  -0.41316  -0.38926  -0.38526
 Alpha  occ. eigenvalues --   -0.38458  -0.37685  -0.37309  -0.37152  -0.36914
 Alpha  occ. eigenvalues --   -0.36382  -0.35037  -0.34565  -0.33990  -0.31974
 Alpha  occ. eigenvalues --   -0.31373  -0.30413  -0.26889  -0.26809  -0.26638
 Alpha  occ. eigenvalues --   -0.26224  -0.26000  -0.24546  -0.24185  -0.22921
 Alpha  occ. eigenvalues --   -0.20851  -0.20661  -0.10117
 Alpha virt. eigenvalues --   -0.06330  -0.02895  -0.00236  -0.00016   0.00344
 Alpha virt. eigenvalues --    0.02273   0.02796   0.03591   0.03802   0.05588
 Alpha virt. eigenvalues --    0.06157   0.07668   0.07718   0.09691   0.10217
 Alpha virt. eigenvalues --    0.12557   0.12993   0.13858   0.13894   0.14899
 Alpha virt. eigenvalues --    0.15221   0.15319   0.15852   0.15999   0.16507
 Alpha virt. eigenvalues --    0.16924   0.17673   0.17883   0.17899   0.18191
 Alpha virt. eigenvalues --    0.19402   0.19822   0.19888   0.19976   0.21035
 Alpha virt. eigenvalues --    0.21801   0.22255   0.22915   0.23956   0.25461
 Alpha virt. eigenvalues --    0.25675   0.25718   0.26306   0.27664   0.27669
 Alpha virt. eigenvalues --    0.27965   0.28679   0.29926   0.30669   0.31284
 Alpha virt. eigenvalues --    0.32859   0.33143   0.33939   0.34686   0.36326
 Alpha virt. eigenvalues --    0.37443   0.37756   0.39368   0.39399   0.41420
 Alpha virt. eigenvalues --    0.42233   0.44235   0.44285   0.46050   0.46835
 Alpha virt. eigenvalues --    0.46881   0.49534   0.51207   0.51755   0.51876
 Alpha virt. eigenvalues --    0.53817   0.54017   0.56173   0.56176   0.56299
 Alpha virt. eigenvalues --    0.56871   0.57114   0.58005   0.58372   0.58674
 Alpha virt. eigenvalues --    0.58688   0.59501   0.60311   0.61514   0.61523
 Alpha virt. eigenvalues --    0.61589   0.63045   0.63091   0.63180   0.63528
 Alpha virt. eigenvalues --    0.63533   0.63666   0.64050   0.64324   0.65079
 Alpha virt. eigenvalues --    0.65437   0.65973   0.65982   0.66950   0.67342
 Alpha virt. eigenvalues --    0.68091   0.68476   0.68693   0.70969   0.71925
 Alpha virt. eigenvalues --    0.72082   0.73449   0.75113   0.75497   0.76285
 Alpha virt. eigenvalues --    0.76976   0.77936   0.79440   0.79728   0.81077
 Alpha virt. eigenvalues --    0.81636   0.82343   0.82949   0.83718   0.84235
 Alpha virt. eigenvalues --    0.84534   0.84978   0.86418   0.86617   0.86618
 Alpha virt. eigenvalues --    0.87514   0.87768   0.89612   0.89691   0.90536
 Alpha virt. eigenvalues --    0.91051   0.91439   0.91664   0.92884   0.93308
 Alpha virt. eigenvalues --    0.93595   0.94378   0.95072   0.95231   0.95821
 Alpha virt. eigenvalues --    0.97144   0.97642   0.97770   0.98389   0.98430
 Alpha virt. eigenvalues --    1.00195   1.00211   1.01330   1.02094   1.02543
 Alpha virt. eigenvalues --    1.02850   1.03907   1.06190   1.07196   1.07636
 Alpha virt. eigenvalues --    1.08492   1.09439   1.09545   1.10687   1.13650
 Alpha virt. eigenvalues --    1.14960   1.15642   1.16433   1.18255   1.18569
 Alpha virt. eigenvalues --    1.19226   1.19638   1.23639   1.23727   1.24161
 Alpha virt. eigenvalues --    1.24555   1.26043   1.26440   1.26721   1.28888
 Alpha virt. eigenvalues --    1.29118   1.29391   1.31234   1.33406   1.33751
 Alpha virt. eigenvalues --    1.36225   1.36353   1.36652   1.38583   1.39358
 Alpha virt. eigenvalues --    1.41264   1.41739   1.42518   1.42522   1.45058
 Alpha virt. eigenvalues --    1.45269   1.45673   1.45934   1.47515   1.48266
 Alpha virt. eigenvalues --    1.49441   1.50052   1.50188   1.50335   1.50339
 Alpha virt. eigenvalues --    1.50718   1.52311   1.53087   1.56654   1.56922
 Alpha virt. eigenvalues --    1.58318   1.61539   1.63964   1.64758   1.65714
 Alpha virt. eigenvalues --    1.70267   1.72241   1.72910   1.76406   1.77225
 Alpha virt. eigenvalues --    1.78377   1.79735   1.79836   1.82283   1.82934
 Alpha virt. eigenvalues --    1.84787   1.86734   1.86840   1.87418   1.87952
 Alpha virt. eigenvalues --    1.88147   1.89616   1.91195   1.91716   1.93373
 Alpha virt. eigenvalues --    1.95094   1.95283   1.96532   1.97008   1.97872
 Alpha virt. eigenvalues --    1.98070   1.98274   1.98643   1.99167   1.99738
 Alpha virt. eigenvalues --    2.00405   2.01299   2.02542   2.03319   2.05929
 Alpha virt. eigenvalues --    2.06504   2.07119   2.09476   2.09892   2.12365
 Alpha virt. eigenvalues --    2.12804   2.14325   2.15277   2.15313   2.16130
 Alpha virt. eigenvalues --    2.16625   2.16670   2.19082   2.19616   2.20500
 Alpha virt. eigenvalues --    2.21142   2.21302   2.21829   2.23612   2.24327
 Alpha virt. eigenvalues --    2.24462   2.26271   2.27270   2.27504   2.27622
 Alpha virt. eigenvalues --    2.27826   2.28052   2.28419   2.28675   2.32782
 Alpha virt. eigenvalues --    2.34226   2.38137   2.39340   2.40504   2.40521
 Alpha virt. eigenvalues --    2.42461   2.43785   2.44630   2.45488   2.46747
 Alpha virt. eigenvalues --    2.51288   2.51489   2.57262   2.58616   2.58881
 Alpha virt. eigenvalues --    2.59395   2.60085   2.60086   2.62188   2.63912
 Alpha virt. eigenvalues --    2.65002   2.66649   2.67174   2.69240   2.69269
 Alpha virt. eigenvalues --    2.69508   2.71009   2.72358   2.74773   2.75080
 Alpha virt. eigenvalues --    2.75104   2.76444   2.77713   2.78790   2.80066
 Alpha virt. eigenvalues --    2.82755   2.85002   2.87566   2.88346   2.92342
 Alpha virt. eigenvalues --    2.93007   2.96740   2.98122   2.99659   2.99728
 Alpha virt. eigenvalues --    3.06036   3.06798   3.14750   3.18577   3.19233
 Alpha virt. eigenvalues --    3.29040   3.39590   3.45428   3.47098   3.52042
 Alpha virt. eigenvalues --    3.52105   3.55786   5.55299   5.56645   5.57161
 Alpha virt. eigenvalues --    5.59672   5.61058   5.61154   5.62757  45.70279
 Alpha virt. eigenvalues --   45.85032  45.91716  63.01115
  Beta  occ. eigenvalues --  -14.45129 -14.45129 -14.45016 -14.45016 -10.27780
  Beta  occ. eigenvalues --  -10.27780 -10.27425 -10.27425 -10.27289 -10.27288
  Beta  occ. eigenvalues --  -10.27170 -10.27170 -10.26469 -10.26468 -10.23587
  Beta  occ. eigenvalues --  -10.23587 -10.23524 -10.23524 -10.23062 -10.23062
  Beta  occ. eigenvalues --  -10.22940 -10.22940 -10.22502 -10.22496 -10.22289
  Beta  occ. eigenvalues --  -10.21476  -3.85817  -2.37087  -2.36561  -2.34062
  Beta  occ. eigenvalues --   -1.05564  -1.05479  -0.96967  -0.96539  -0.88042
  Beta  occ. eigenvalues --   -0.87557  -0.85701  -0.80393  -0.78840  -0.77587
  Beta  occ. eigenvalues --   -0.77566  -0.75398  -0.74690  -0.73245  -0.72585
  Beta  occ. eigenvalues --   -0.66793  -0.65211  -0.64117  -0.64089  -0.62689
  Beta  occ. eigenvalues --   -0.61257  -0.58908  -0.57733  -0.56565  -0.53922
  Beta  occ. eigenvalues --   -0.53067  -0.52234  -0.49289  -0.49221  -0.49111
  Beta  occ. eigenvalues --   -0.48560  -0.48260  -0.47166  -0.46700  -0.45874
  Beta  occ. eigenvalues --   -0.45709  -0.45288  -0.44829  -0.44521  -0.43847
  Beta  occ. eigenvalues --   -0.42799  -0.41899  -0.41327  -0.38651  -0.38593
  Beta  occ. eigenvalues --   -0.38563  -0.37293  -0.37236  -0.36546  -0.36512
  Beta  occ. eigenvalues --   -0.35856  -0.35113  -0.34021  -0.33337  -0.31635
  Beta  occ. eigenvalues --   -0.29776  -0.27629  -0.26489  -0.25908  -0.24887
  Beta  occ. eigenvalues --   -0.23811  -0.23390  -0.21959  -0.20679  -0.19812
  Beta  occ. eigenvalues --   -0.19727
  Beta virt. eigenvalues --   -0.04472  -0.04020  -0.00687  -0.00415  -0.00080
  Beta virt. eigenvalues --    0.01327   0.01710   0.02449   0.03551   0.05382
  Beta virt. eigenvalues --    0.05665   0.05977   0.07910   0.08801   0.09296
  Beta virt. eigenvalues --    0.10239   0.10644   0.12649   0.13090   0.13981
  Beta virt. eigenvalues --    0.14207   0.15315   0.15360   0.16019   0.16020
  Beta virt. eigenvalues --    0.16653   0.16659   0.16971   0.17761   0.18031
  Beta virt. eigenvalues --    0.18500   0.18811   0.19546   0.19904   0.20231
  Beta virt. eigenvalues --    0.21564   0.21926   0.22433   0.22747   0.22905
  Beta virt. eigenvalues --    0.24014   0.25769   0.25799   0.26263   0.27082
  Beta virt. eigenvalues --    0.27697   0.28064   0.29056   0.29160   0.30299
  Beta virt. eigenvalues --    0.30978   0.31402   0.32986   0.33136   0.34309
  Beta virt. eigenvalues --    0.34734   0.36450   0.37693   0.38044   0.39485
  Beta virt. eigenvalues --    0.39531   0.41411   0.42635   0.44419   0.44786
  Beta virt. eigenvalues --    0.46183   0.47206   0.47361   0.49825   0.51299
  Beta virt. eigenvalues --    0.51884   0.51895   0.53915   0.54152   0.56211
  Beta virt. eigenvalues --    0.56214   0.56500   0.56933   0.57177   0.58183
  Beta virt. eigenvalues --    0.58503   0.58718   0.58963   0.59555   0.60375
  Beta virt. eigenvalues --    0.61562   0.61679   0.61738   0.63022   0.63103
  Beta virt. eigenvalues --    0.63349   0.63568   0.63710   0.63715   0.64083
  Beta virt. eigenvalues --    0.64326   0.65075   0.65426   0.66044   0.66191
  Beta virt. eigenvalues --    0.67378   0.67638   0.68126   0.68494   0.68700
  Beta virt. eigenvalues --    0.70978   0.72001   0.72178   0.73761   0.75370
  Beta virt. eigenvalues --    0.75512   0.76407   0.77078   0.78393   0.79587
  Beta virt. eigenvalues --    0.80322   0.81272   0.81859   0.82565   0.83001
  Beta virt. eigenvalues --    0.84123   0.84331   0.84591   0.85241   0.86617
  Beta virt. eigenvalues --    0.86625   0.87072   0.87528   0.87775   0.89702
  Beta virt. eigenvalues --    0.89888   0.90594   0.91217   0.91539   0.91794
  Beta virt. eigenvalues --    0.92911   0.93315   0.93646   0.95129   0.95266
  Beta virt. eigenvalues --    0.96168   0.96351   0.97150   0.97813   0.98032
  Beta virt. eigenvalues --    0.98427   0.98451   1.00199   1.00310   1.01389
  Beta virt. eigenvalues --    1.02146   1.02578   1.02875   1.03984   1.06286
  Beta virt. eigenvalues --    1.07230   1.08577   1.09093   1.09539   1.11026
  Beta virt. eigenvalues --    1.13715   1.15065   1.15692   1.16462   1.16486
  Beta virt. eigenvalues --    1.18279   1.18601   1.19259   1.19757   1.23692
  Beta virt. eigenvalues --    1.23865   1.24380   1.24612   1.26502   1.26587
  Beta virt. eigenvalues --    1.26919   1.29060   1.29310   1.29559   1.31205
  Beta virt. eigenvalues --    1.33775   1.34050   1.36482   1.36625   1.36816
  Beta virt. eigenvalues --    1.38728   1.39755   1.41514   1.42010   1.42605
  Beta virt. eigenvalues --    1.43030   1.45009   1.45370   1.45823   1.46117
  Beta virt. eigenvalues --    1.47689   1.48374   1.49625   1.50066   1.50354
  Beta virt. eigenvalues --    1.50451   1.50487   1.50987   1.52768   1.54350
  Beta virt. eigenvalues --    1.56845   1.56915   1.59162   1.61693   1.64095
  Beta virt. eigenvalues --    1.65496   1.65966   1.70328   1.72653   1.73058
  Beta virt. eigenvalues --    1.76623   1.77204   1.78680   1.79776   1.79934
  Beta virt. eigenvalues --    1.82369   1.83029   1.84861   1.86872   1.86949
  Beta virt. eigenvalues --    1.87438   1.87794   1.88127   1.89812   1.91227
  Beta virt. eigenvalues --    1.91783   1.93404   1.95117   1.95342   1.96566
  Beta virt. eigenvalues --    1.97081   1.98023   1.98124   1.98286   1.98695
  Beta virt. eigenvalues --    1.99293   1.99971   2.00443   2.01337   2.02589
  Beta virt. eigenvalues --    2.03386   2.06059   2.06670   2.07348   2.09664
  Beta virt. eigenvalues --    2.09820   2.12517   2.12815   2.14647   2.15304
  Beta virt. eigenvalues --    2.15382   2.16199   2.16698   2.16750   2.19189
  Beta virt. eigenvalues --    2.19865   2.20612   2.21233   2.21376   2.21963
  Beta virt. eigenvalues --    2.23868   2.24616   2.24707   2.26486   2.27484
  Beta virt. eigenvalues --    2.27486   2.27751   2.27954   2.28208   2.28614
  Beta virt. eigenvalues --    2.28855   2.32879   2.34647   2.38270   2.39626
  Beta virt. eigenvalues --    2.40639   2.40757   2.44164   2.44793   2.45815
  Beta virt. eigenvalues --    2.46794   2.48443   2.51386   2.51560   2.57462
  Beta virt. eigenvalues --    2.58883   2.58931   2.59268   2.60263   2.60397
  Beta virt. eigenvalues --    2.62279   2.64119   2.65227   2.66758   2.67559
  Beta virt. eigenvalues --    2.69355   2.69536   2.69740   2.72256   2.73194
  Beta virt. eigenvalues --    2.74882   2.75198   2.75357   2.77391   2.78048
  Beta virt. eigenvalues --    2.79131   2.80135   2.82928   2.85422   2.87802
  Beta virt. eigenvalues --    2.88477   2.93011   2.93225   2.97020   2.98079
  Beta virt. eigenvalues --    2.99823   3.00170   3.06206   3.07008   3.14787
  Beta virt. eigenvalues --    3.18822   3.19435   3.28833   3.39641   3.46063
  Beta virt. eigenvalues --    3.47109   3.51998   3.52196   3.58770   5.61407
  Beta virt. eigenvalues --    5.63434   5.63630   5.63770   5.65333   5.68047
  Beta virt. eigenvalues --    5.69326  45.80957  45.93528  45.99634  63.07683
          Condensed to atoms (all electrons):
               1          2          3          4          5          6
     1  C    5.201593   0.500034  -0.061919  -0.055307  -0.061920   0.500036
     2  C    0.500034   4.570113   0.528672  -0.013406  -0.039563  -0.017918
     3  C   -0.061919   0.528672   5.043510   0.526086  -0.031584  -0.039563
     4  C   -0.055307  -0.013406   0.526086   4.910141   0.526084  -0.013406
     5  C   -0.061920  -0.039563  -0.031584   0.526084   5.043512   0.528674
     6  C    0.500036  -0.017918  -0.039563  -0.013406   0.528674   4.570108
     7  H    0.006019  -0.038703   0.345547  -0.039030   0.003890   0.000742
     8  H    0.001377   0.002459  -0.035157   0.366642  -0.035157   0.002459
     9  H    0.006019   0.000742   0.003890  -0.039030   0.345546  -0.038703
    10  C    0.006228  -0.000028   0.000003   0.000116  -0.005068  -0.044741
    11  C    0.007974   0.001918  -0.000047   0.000041   0.002533  -0.063527
    12  C   -0.000720   0.000001  -0.000000   0.000001   0.000114   0.007413
    13  C    0.000179   0.000001  -0.000001   0.000057   0.001735  -0.004451
    14  C    0.000002  -0.000000   0.000000  -0.000000   0.000001  -0.000039
    15  C    0.000001  -0.000000   0.000000  -0.000001   0.000073   0.000066
    16  H   -0.000029   0.000000   0.000001   0.000102   0.000068   0.000810
    17  C    0.000000   0.000000   0.000000   0.000000  -0.000000  -0.000001
    18  H   -0.000000   0.000000   0.000000   0.000000  -0.000000   0.000003
    19  H   -0.000000   0.000000  -0.000000   0.000000   0.000002  -0.000003
    20  H    0.000000  -0.000000   0.000000  -0.000000  -0.000000  -0.000000
    21  C    0.006229  -0.044741  -0.005068   0.000116   0.000003  -0.000028
    22  C    0.007974  -0.063528   0.002533   0.000041  -0.000047   0.001918
    23  C   -0.000720   0.007412   0.000114   0.000001  -0.000000   0.000001
    24  C    0.000179  -0.004451   0.001735   0.000057  -0.000001   0.000001
    25  C    0.000002  -0.000039   0.000001  -0.000000   0.000000  -0.000000
    26  C    0.000001   0.000066   0.000073  -0.000001   0.000000  -0.000000
    27  H   -0.000029   0.000810   0.000068   0.000102   0.000001   0.000000
    28  C    0.000000  -0.000001  -0.000000   0.000000   0.000000   0.000000
    29  H   -0.000000   0.000003  -0.000000   0.000000   0.000000   0.000000
    30  H   -0.000000  -0.000003   0.000002   0.000000  -0.000000   0.000000
    31  H    0.000000  -0.000000  -0.000000  -0.000000   0.000000  -0.000000
    32  N   -0.039797   0.268544  -0.070219   0.004573   0.000105   0.006235
    33  N    0.001226   0.006094  -0.000158   0.000001   0.000000  -0.000034
    34  N   -0.039798   0.006235   0.000105   0.004573  -0.070220   0.268542
    35  N    0.001226  -0.000034   0.000000   0.000001  -0.000158   0.006093
    36  C   -0.000007   0.000000   0.000000  -0.000000   0.000002  -0.000051
    37  H   -0.000000  -0.000000   0.000000   0.000000  -0.000000   0.000004
    38  H   -0.000000  -0.000000   0.000000   0.000000  -0.000000   0.000004
    39  H   -0.000020   0.000001   0.000000  -0.000000   0.000000  -0.000010
    40  C   -0.000007  -0.000051   0.000002  -0.000000   0.000000   0.000000
    41  H   -0.000000   0.000004  -0.000000   0.000000   0.000000  -0.000000
    42  H   -0.000000   0.000004  -0.000000   0.000000   0.000000  -0.000000
    43  H   -0.000020  -0.000010   0.000000  -0.000000   0.000000   0.000001
    44  Co   0.257343  -0.060266   0.003869   0.003488   0.003869  -0.060265
               7          8          9         10         11         12
     1  C    0.006019   0.001377   0.006019   0.006228   0.007974  -0.000720
     2  C   -0.038703   0.002459   0.000742  -0.000028   0.001918   0.000001
     3  C    0.345547  -0.035157   0.003890   0.000003  -0.000047  -0.000000
     4  C   -0.039030   0.366642  -0.039030   0.000116   0.000041   0.000001
     5  C    0.003890  -0.035157   0.345546  -0.005068   0.002533   0.000114
     6  C    0.000742   0.002459  -0.038703  -0.044741  -0.063527   0.007413
     7  H    0.555501  -0.004130  -0.000101  -0.000000  -0.000000   0.000000
     8  H   -0.004130   0.541025  -0.004130  -0.000002   0.000001  -0.000000
     9  H   -0.000101  -0.004130   0.555501   0.000421  -0.000158  -0.000040
    10  C   -0.000000  -0.000002   0.000421   4.636990  -0.068483   0.514218
    11  C   -0.000000   0.000001  -0.000158  -0.068483   4.814849  -0.056543
    12  C    0.000000  -0.000000  -0.000040   0.514218  -0.056543   4.648574
    13  C   -0.000000   0.000002  -0.000029   0.541635   0.004729  -0.055890
    14  C   -0.000000   0.000000   0.000000  -0.048689   0.005595   0.534050
    15  C   -0.000000   0.000000   0.000109  -0.006190  -0.000072  -0.037882
    16  H    0.000000  -0.000010   0.006232  -0.034397  -0.000156   0.003736
    17  C    0.000000  -0.000000   0.000002  -0.039509  -0.000079  -0.008035
    18  H    0.000000  -0.000000  -0.000000   0.003976  -0.000209  -0.038104
    19  H    0.000000   0.000000  -0.000009   0.001939   0.000003   0.000937
    20  H   -0.000000  -0.000000   0.000000   0.000911   0.000003   0.002312
    21  C    0.000421  -0.000002  -0.000000  -0.000000  -0.000007   0.000000
    22  C   -0.000158   0.000001  -0.000000  -0.000007  -0.012497  -0.000002
    23  C   -0.000040  -0.000000   0.000000   0.000000  -0.000002  -0.000000
    24  C   -0.000029   0.000002  -0.000000   0.000000   0.000000   0.000000
    25  C    0.000000   0.000000  -0.000000  -0.000000   0.000000   0.000000
    26  C    0.000109   0.000000  -0.000000  -0.000000  -0.000000   0.000000
    27  H    0.006232  -0.000010   0.000000   0.000000   0.000000  -0.000000
    28  C    0.000002  -0.000000   0.000000   0.000000  -0.000000  -0.000000
    29  H   -0.000000  -0.000000   0.000000   0.000000   0.000000  -0.000000
    30  H   -0.000009   0.000000   0.000000   0.000000   0.000000   0.000000
    31  H    0.000000  -0.000000  -0.000000   0.000000   0.000000   0.000000
    32  N   -0.004078  -0.000096   0.000007   0.000000   0.000229   0.000000
    33  N    0.000002  -0.000000  -0.000000   0.000000   0.000019   0.000000
    34  N    0.000007  -0.000096  -0.004078   0.257495   0.342313  -0.038838
    35  N   -0.000000  -0.000000   0.000002  -0.045906   0.307436   0.272963
    36  C   -0.000000   0.000000  -0.000000   0.005726  -0.043758  -0.047531
    37  H    0.000000  -0.000000   0.000000  -0.000136   0.000730  -0.001154
    38  H    0.000000  -0.000000   0.000000  -0.000136   0.000725  -0.001150
    39  H    0.000000   0.000000   0.000000   0.000018  -0.000398   0.002615
    40  C   -0.000000   0.000000  -0.000000   0.000000   0.000014   0.000000
    41  H    0.000000  -0.000000   0.000000  -0.000000  -0.000000  -0.000000
    42  H    0.000000  -0.000000   0.000000  -0.000000  -0.000000  -0.000000
    43  H    0.000000   0.000000   0.000000  -0.000000  -0.000001  -0.000000
    44  Co  -0.000667   0.000128  -0.000667   0.008009   0.386672   0.004742
              13         14         15         16         17         18
     1  C    0.000179   0.000002   0.000001  -0.000029   0.000000  -0.000000
     2  C    0.000001  -0.000000  -0.000000   0.000000   0.000000   0.000000
     3  C   -0.000001   0.000000   0.000000   0.000001   0.000000   0.000000
     4  C    0.000057  -0.000000  -0.000001   0.000102   0.000000   0.000000
     5  C    0.001735   0.000001   0.000073   0.000068  -0.000000  -0.000000
     6  C   -0.004451  -0.000039   0.000066   0.000810  -0.000001   0.000003
     7  H   -0.000000  -0.000000  -0.000000   0.000000   0.000000   0.000000
     8  H    0.000002   0.000000   0.000000  -0.000010  -0.000000  -0.000000
     9  H   -0.000029   0.000000   0.000109   0.006232   0.000002  -0.000000
    10  C    0.541635  -0.048689  -0.006190  -0.034397  -0.039509   0.003976
    11  C    0.004729   0.005595  -0.000072  -0.000156  -0.000079  -0.000209
    12  C   -0.055890   0.534050  -0.037882   0.003736  -0.008035  -0.038104
    13  C    5.027176  -0.044320   0.506861   0.355503  -0.036381   0.000290
    14  C   -0.044320   5.037317  -0.038049   0.000452   0.514997   0.362284
    15  C    0.506861  -0.038049   4.899531  -0.035538   0.559733   0.003866
    16  H    0.355503   0.000452  -0.035538   0.517852   0.003687   0.000013
    17  C   -0.036381   0.514997   0.559733   0.003687   4.887056  -0.035403
    18  H    0.000290   0.362284   0.003866   0.000013  -0.035403   0.536548
    19  H   -0.035940   0.003952   0.368780  -0.003973  -0.035888  -0.000145
    20  H    0.004025  -0.037103  -0.036376  -0.000148   0.368218  -0.004208
    21  C    0.000000  -0.000000  -0.000000   0.000000   0.000000   0.000000
    22  C    0.000000   0.000000  -0.000000   0.000000  -0.000000   0.000000
    23  C    0.000000   0.000000   0.000000  -0.000000  -0.000000  -0.000000
    24  C    0.000000  -0.000000  -0.000000   0.000000   0.000000   0.000000
    25  C   -0.000000  -0.000000   0.000000  -0.000000  -0.000000   0.000000
    26  C   -0.000000   0.000000  -0.000000  -0.000000   0.000000   0.000000
    27  H    0.000000  -0.000000  -0.000000   0.000000   0.000000  -0.000000
    28  C    0.000000  -0.000000   0.000000   0.000000   0.000000   0.000000
    29  H    0.000000   0.000000   0.000000  -0.000000   0.000000  -0.000000
    30  H   -0.000000  -0.000000   0.000000  -0.000000   0.000000   0.000000
    31  H   -0.000000   0.000000   0.000000  -0.000000   0.000000   0.000000
    32  N   -0.000000  -0.000000   0.000000   0.000000   0.000000  -0.000000
    33  N   -0.000000  -0.000000   0.000000   0.000000   0.000000  -0.000000
    34  N   -0.078023   0.009104   0.005188  -0.005077  -0.000182  -0.000094
    35  N    0.009299  -0.084285  -0.000144  -0.000097   0.005437  -0.007356
    36  C   -0.000117  -0.003060   0.000009   0.000003  -0.000111   0.004227
    37  H   -0.000008   0.002691  -0.000002  -0.000000  -0.000007   0.000506
    38  H   -0.000008   0.002689  -0.000002  -0.000000  -0.000007   0.000505
    39  H    0.000006   0.000015  -0.000000  -0.000000   0.000001  -0.000031
    40  C    0.000000   0.000000  -0.000000   0.000000   0.000000  -0.000000
    41  H    0.000000   0.000000  -0.000000   0.000000  -0.000000  -0.000000
    42  H    0.000000   0.000000  -0.000000   0.000000  -0.000000  -0.000000
    43  H   -0.000000   0.000000  -0.000000   0.000000  -0.000000   0.000000
    44  Co  -0.000472  -0.000462  -0.000022   0.000054   0.000009   0.000023
              19         20         21         22         23         24
     1  C   -0.000000   0.000000   0.006229   0.007974  -0.000720   0.000179
     2  C    0.000000  -0.000000  -0.044741  -0.063528   0.007412  -0.004451
     3  C   -0.000000   0.000000  -0.005068   0.002533   0.000114   0.001735
     4  C    0.000000  -0.000000   0.000116   0.000041   0.000001   0.000057
     5  C    0.000002  -0.000000   0.000003  -0.000047  -0.000000  -0.000001
     6  C   -0.000003  -0.000000  -0.000028   0.001918   0.000001   0.000001
     7  H    0.000000  -0.000000   0.000421  -0.000158  -0.000040  -0.000029
     8  H    0.000000  -0.000000  -0.000002   0.000001  -0.000000   0.000002
     9  H   -0.000009   0.000000  -0.000000  -0.000000   0.000000  -0.000000
    10  C    0.001939   0.000911  -0.000000  -0.000007   0.000000   0.000000
    11  C    0.000003   0.000003  -0.000007  -0.012497  -0.000002   0.000000
    12  C    0.000937   0.002312   0.000000  -0.000002  -0.000000   0.000000
    13  C   -0.035940   0.004025   0.000000   0.000000   0.000000   0.000000
    14  C    0.003952  -0.037103  -0.000000   0.000000   0.000000  -0.000000
    15  C    0.368780  -0.036376  -0.000000  -0.000000   0.000000  -0.000000
    16  H   -0.003973  -0.000148   0.000000   0.000000  -0.000000   0.000000
    17  C   -0.035888   0.368218   0.000000  -0.000000  -0.000000   0.000000
    18  H   -0.000145  -0.004208   0.000000   0.000000  -0.000000   0.000000
    19  H    0.534323  -0.004615   0.000000   0.000000   0.000000  -0.000000
    20  H   -0.004615   0.538427   0.000000   0.000000   0.000000  -0.000000
    21  C    0.000000   0.000000   4.637002  -0.068484   0.514219   0.541633
    22  C    0.000000   0.000000  -0.068484   4.814852  -0.056542   0.004729
    23  C    0.000000   0.000000   0.514219  -0.056542   4.648565  -0.055889
    24  C   -0.000000  -0.000000   0.541633   0.004729  -0.055889   5.027169
    25  C   -0.000000   0.000000  -0.048690   0.005595   0.534051  -0.044320
    26  C    0.000000   0.000000  -0.006191  -0.000072  -0.037882   0.506863
    27  H   -0.000000  -0.000000  -0.034397  -0.000156   0.003736   0.355504
    28  C    0.000000   0.000000  -0.039508  -0.000079  -0.008035  -0.036382
    29  H    0.000000   0.000000   0.003976  -0.000209  -0.038104   0.000290
    30  H    0.000000   0.000000   0.001939   0.000003   0.000937  -0.035941
    31  H    0.000000   0.000000   0.000911   0.000003   0.002312   0.004025
    32  N    0.000000   0.000000   0.257495   0.342312  -0.038838  -0.078021
    33  N   -0.000000  -0.000000  -0.045906   0.307435   0.272963   0.009299
    34  N   -0.000091   0.000003   0.000000   0.000229   0.000000  -0.000000
    35  N    0.000004  -0.000100   0.000000   0.000019   0.000000  -0.000000
    36  C   -0.000000  -0.000002   0.000000   0.000014   0.000000   0.000000
    37  H   -0.000000  -0.000000  -0.000000  -0.000000  -0.000000   0.000000
    38  H   -0.000000  -0.000000  -0.000000  -0.000000  -0.000000   0.000000
    39  H   -0.000000  -0.000000  -0.000000  -0.000001  -0.000000  -0.000000
    40  C    0.000000  -0.000000   0.005726  -0.043758  -0.047531  -0.000117
    41  H   -0.000000   0.000000  -0.000136   0.000725  -0.001150  -0.000008
    42  H   -0.000000   0.000000  -0.000136   0.000731  -0.001154  -0.000008
    43  H    0.000000   0.000000   0.000018  -0.000398   0.002615   0.000006
    44  Co   0.000015  -0.000004   0.008009   0.386673   0.004742  -0.000472
              25         26         27         28         29         30
     1  C    0.000002   0.000001  -0.000029   0.000000  -0.000000  -0.000000
     2  C   -0.000039   0.000066   0.000810  -0.000001   0.000003  -0.000003
     3  C    0.000001   0.000073   0.000068  -0.000000  -0.000000   0.000002
     4  C   -0.000000  -0.000001   0.000102   0.000000   0.000000   0.000000
     5  C    0.000000   0.000000   0.000001   0.000000   0.000000  -0.000000
     6  C   -0.000000  -0.000000   0.000000   0.000000   0.000000   0.000000
     7  H    0.000000   0.000109   0.006232   0.000002  -0.000000  -0.000009
     8  H    0.000000   0.000000  -0.000010  -0.000000  -0.000000   0.000000
     9  H   -0.000000  -0.000000   0.000000   0.000000   0.000000   0.000000
    10  C   -0.000000  -0.000000   0.000000   0.000000   0.000000   0.000000
    11  C    0.000000  -0.000000   0.000000  -0.000000   0.000000   0.000000
    12  C    0.000000   0.000000  -0.000000  -0.000000  -0.000000   0.000000
    13  C   -0.000000  -0.000000   0.000000   0.000000   0.000000  -0.000000
    14  C   -0.000000   0.000000  -0.000000  -0.000000   0.000000  -0.000000
    15  C    0.000000  -0.000000  -0.000000   0.000000   0.000000   0.000000
    16  H   -0.000000  -0.000000   0.000000   0.000000  -0.000000  -0.000000
    17  C   -0.000000   0.000000   0.000000   0.000000   0.000000   0.000000
    18  H    0.000000   0.000000  -0.000000   0.000000  -0.000000   0.000000
    19  H   -0.000000   0.000000  -0.000000   0.000000   0.000000   0.000000
    20  H    0.000000   0.000000  -0.000000   0.000000   0.000000   0.000000
    21  C   -0.048690  -0.006191  -0.034397  -0.039508   0.003976   0.001939
    22  C    0.005595  -0.000072  -0.000156  -0.000079  -0.000209   0.000003
    23  C    0.534051  -0.037882   0.003736  -0.008035  -0.038104   0.000937
    24  C   -0.044320   0.506863   0.355504  -0.036382   0.000290  -0.035941
    25  C    5.037323  -0.038049   0.000452   0.514995   0.362284   0.003952
    26  C   -0.038049   4.899528  -0.035538   0.559734   0.003866   0.368779
    27  H    0.000452  -0.035538   0.517852   0.003687   0.000013  -0.003973
    28  C    0.514995   0.559734   0.003687   4.887056  -0.035403  -0.035888
    29  H    0.362284   0.003866   0.000013  -0.035403   0.536547  -0.000145
    30  H    0.003952   0.368779  -0.003973  -0.035888  -0.000145   0.534325
    31  H   -0.037103  -0.036376  -0.000148   0.368218  -0.004208  -0.004615
    32  N    0.009104   0.005188  -0.005077  -0.000182  -0.000094  -0.000091
    33  N   -0.084286  -0.000144  -0.000097   0.005437  -0.007356   0.000004
    34  N   -0.000000   0.000000   0.000000   0.000000  -0.000000   0.000000
    35  N   -0.000000   0.000000   0.000000   0.000000  -0.000000  -0.000000
    36  C    0.000000  -0.000000   0.000000   0.000000  -0.000000   0.000000
    37  H    0.000000  -0.000000   0.000000  -0.000000  -0.000000  -0.000000
    38  H    0.000000  -0.000000   0.000000  -0.000000  -0.000000  -0.000000
    39  H    0.000000  -0.000000   0.000000  -0.000000   0.000000   0.000000
    40  C   -0.003060   0.000009   0.000003  -0.000111   0.004227  -0.000000
    41  H    0.002689  -0.000002  -0.000000  -0.000007   0.000505  -0.000000
    42  H    0.002691  -0.000002  -0.000000  -0.000007   0.000507  -0.000000
    43  H    0.000015  -0.000000  -0.000000   0.000001  -0.000031  -0.000000
    44  Co  -0.000462  -0.000022   0.000054   0.000009   0.000023   0.000015
              31         32         33         34         35         36
     1  C    0.000000  -0.039797   0.001226  -0.039798   0.001226  -0.000007
     2  C   -0.000000   0.268544   0.006094   0.006235  -0.000034   0.000000
     3  C   -0.000000  -0.070219  -0.000158   0.000105   0.000000   0.000000
     4  C   -0.000000   0.004573   0.000001   0.004573   0.000001  -0.000000
     5  C    0.000000   0.000105   0.000000  -0.070220  -0.000158   0.000002
     6  C   -0.000000   0.006235  -0.000034   0.268542   0.006093  -0.000051
     7  H    0.000000  -0.004078   0.000002   0.000007  -0.000000  -0.000000
     8  H   -0.000000  -0.000096  -0.000000  -0.000096  -0.000000   0.000000
     9  H   -0.000000   0.000007  -0.000000  -0.004078   0.000002  -0.000000
    10  C    0.000000   0.000000   0.000000   0.257495  -0.045906   0.005726
    11  C    0.000000   0.000229   0.000019   0.342313   0.307436  -0.043758
    12  C    0.000000   0.000000   0.000000  -0.038838   0.272963  -0.047531
    13  C   -0.000000  -0.000000  -0.000000  -0.078023   0.009299  -0.000117
    14  C    0.000000  -0.000000  -0.000000   0.009104  -0.084285  -0.003060
    15  C    0.000000   0.000000   0.000000   0.005188  -0.000144   0.000009
    16  H   -0.000000   0.000000   0.000000  -0.005077  -0.000097   0.000003
    17  C    0.000000   0.000000   0.000000  -0.000182   0.005437  -0.000111
    18  H    0.000000  -0.000000  -0.000000  -0.000094  -0.007356   0.004227
    19  H    0.000000   0.000000  -0.000000  -0.000091   0.000004  -0.000000
    20  H    0.000000   0.000000  -0.000000   0.000003  -0.000100  -0.000002
    21  C    0.000911   0.257495  -0.045906   0.000000   0.000000   0.000000
    22  C    0.000003   0.342312   0.307435   0.000229   0.000019   0.000014
    23  C    0.002312  -0.038838   0.272963   0.000000   0.000000   0.000000
    24  C    0.004025  -0.078021   0.009299  -0.000000  -0.000000   0.000000
    25  C   -0.037103   0.009104  -0.084286  -0.000000  -0.000000   0.000000
    26  C   -0.036376   0.005188  -0.000144   0.000000   0.000000  -0.000000
    27  H   -0.000148  -0.005077  -0.000097   0.000000   0.000000   0.000000
    28  C    0.368218  -0.000182   0.005437   0.000000   0.000000   0.000000
    29  H   -0.004208  -0.000094  -0.007356  -0.000000  -0.000000  -0.000000
    30  H   -0.004615  -0.000091   0.000004   0.000000  -0.000000   0.000000
    31  H    0.538426   0.000003  -0.000100   0.000000  -0.000000  -0.000000
    32  N    0.000003   7.203231  -0.056594  -0.000069   0.000000  -0.000000
    33  N   -0.000100  -0.056594   7.049974   0.000000  -0.000000  -0.000000
    34  N    0.000000  -0.000069   0.000000   7.203239  -0.056594   0.004542
    35  N   -0.000000   0.000000  -0.000000  -0.056594   7.049971   0.300939
    36  C   -0.000000  -0.000000  -0.000000   0.004542   0.300939   5.051874
    37  H    0.000000   0.000000   0.000000  -0.000069  -0.042060   0.377444
    38  H    0.000000   0.000000   0.000000  -0.000069  -0.042064   0.377450
    39  H    0.000000  -0.000000   0.000000   0.000156  -0.032654   0.376724
    40  C   -0.000002   0.004542   0.300939  -0.000000  -0.000000   0.000000
    41  H   -0.000000  -0.000069  -0.042064   0.000000   0.000000  -0.000000
    42  H   -0.000000  -0.000069  -0.042059   0.000000   0.000000  -0.000000
    43  H   -0.000000   0.000156  -0.032654  -0.000000   0.000000  -0.000001
    44  Co  -0.000004  -0.077650  -0.054615  -0.077651  -0.054615  -0.003987
              37         38         39         40         41         42
     1  C   -0.000000  -0.000000  -0.000020  -0.000007  -0.000000  -0.000000
     2  C   -0.000000  -0.000000   0.000001  -0.000051   0.000004   0.000004
     3  C    0.000000   0.000000   0.000000   0.000002  -0.000000  -0.000000
     4  C    0.000000   0.000000  -0.000000  -0.000000   0.000000   0.000000
     5  C   -0.000000  -0.000000   0.000000   0.000000   0.000000   0.000000
     6  C    0.000004   0.000004  -0.000010   0.000000  -0.000000  -0.000000
     7  H    0.000000   0.000000   0.000000  -0.000000   0.000000   0.000000
     8  H   -0.000000  -0.000000   0.000000   0.000000  -0.000000  -0.000000
     9  H    0.000000   0.000000   0.000000  -0.000000   0.000000   0.000000
    10  C   -0.000136  -0.000136   0.000018   0.000000  -0.000000  -0.000000
    11  C    0.000730   0.000725  -0.000398   0.000014  -0.000000  -0.000000
    12  C   -0.001154  -0.001150   0.002615   0.000000  -0.000000  -0.000000
    13  C   -0.000008  -0.000008   0.000006   0.000000   0.000000   0.000000
    14  C    0.002691   0.002689   0.000015   0.000000   0.000000   0.000000
    15  C   -0.000002  -0.000002  -0.000000  -0.000000  -0.000000  -0.000000
    16  H   -0.000000  -0.000000  -0.000000   0.000000   0.000000   0.000000
    17  C   -0.000007  -0.000007   0.000001   0.000000  -0.000000  -0.000000
    18  H    0.000506   0.000505  -0.000031  -0.000000  -0.000000  -0.000000
    19  H   -0.000000  -0.000000  -0.000000   0.000000  -0.000000  -0.000000
    20  H   -0.000000  -0.000000  -0.000000  -0.000000   0.000000   0.000000
    21  C   -0.000000  -0.000000  -0.000000   0.005726  -0.000136  -0.000136
    22  C   -0.000000  -0.000000  -0.000001  -0.043758   0.000725   0.000731
    23  C   -0.000000  -0.000000  -0.000000  -0.047531  -0.001150  -0.001154
    24  C    0.000000   0.000000  -0.000000  -0.000117  -0.000008  -0.000008
    25  C    0.000000   0.000000   0.000000  -0.003060   0.002689   0.002691
    26  C   -0.000000  -0.000000  -0.000000   0.000009  -0.000002  -0.000002
    27  H    0.000000   0.000000   0.000000   0.000003  -0.000000  -0.000000
    28  C   -0.000000  -0.000000  -0.000000  -0.000111  -0.000007  -0.000007
    29  H   -0.000000  -0.000000   0.000000   0.004227   0.000505   0.000507
    30  H   -0.000000  -0.000000   0.000000  -0.000000  -0.000000  -0.000000
    31  H    0.000000   0.000000   0.000000  -0.000002  -0.000000  -0.000000
    32  N    0.000000   0.000000  -0.000000   0.004542  -0.000069  -0.000069
    33  N    0.000000   0.000000   0.000000   0.300939  -0.042064  -0.042059
    34  N   -0.000069  -0.000069   0.000156  -0.000000   0.000000   0.000000
    35  N   -0.042060  -0.042064  -0.032654  -0.000000   0.000000   0.000000
    36  C    0.377444   0.377450   0.376724   0.000000  -0.000000  -0.000000
    37  H    0.524866  -0.040291  -0.025596  -0.000000  -0.000000   0.000000
    38  H   -0.040291   0.524870  -0.025606  -0.000000   0.000000  -0.000000
    39  H   -0.025596  -0.025606   0.479769  -0.000001   0.000000   0.000000
    40  C   -0.000000  -0.000000  -0.000001   5.051873   0.377450   0.377444
    41  H   -0.000000   0.000000   0.000000   0.377450   0.524870  -0.040291
    42  H    0.000000  -0.000000   0.000000   0.377444  -0.040291   0.524866
    43  H    0.000000   0.000000  -0.000022   0.376724  -0.025607  -0.025595
    44  Co   0.001070   0.001073   0.007973  -0.003987   0.001074   0.001070
              43         44
     1  C   -0.000020   0.257343
     2  C   -0.000010  -0.060266
     3  C    0.000000   0.003869
     4  C   -0.000000   0.003488
     5  C    0.000000   0.003869
     6  C    0.000001  -0.060265
     7  H    0.000000  -0.000667
     8  H    0.000000   0.000128
     9  H    0.000000  -0.000667
    10  C   -0.000000   0.008009
    11  C   -0.000001   0.386672
    12  C   -0.000000   0.004742
    13  C   -0.000000  -0.000472
    14  C    0.000000  -0.000462
    15  C   -0.000000  -0.000022
    16  H    0.000000   0.000054
    17  C   -0.000000   0.000009
    18  H    0.000000   0.000023
    19  H    0.000000   0.000015
    20  H    0.000000  -0.000004
    21  C    0.000018   0.008009
    22  C   -0.000398   0.386673
    23  C    0.002615   0.004742
    24  C    0.000006  -0.000472
    25  C    0.000015  -0.000462
    26  C   -0.000000  -0.000022
    27  H   -0.000000   0.000054
    28  C    0.000001   0.000009
    29  H   -0.000031   0.000023
    30  H   -0.000000   0.000015
    31  H   -0.000000  -0.000004
    32  N    0.000156  -0.077650
    33  N   -0.032654  -0.054615
    34  N   -0.000000  -0.077651
    35  N    0.000000  -0.054615
    36  C   -0.000001  -0.003987
    37  H    0.000000   0.001070
    38  H    0.000000   0.001073
    39  H   -0.000022   0.007973
    40  C    0.376724  -0.003987
    41  H   -0.025607   0.001074
    42  H   -0.025595   0.001070
    43  H    0.479770   0.007973
    44  Co   0.007973  16.338338
          Atomic-Atomic Spin Densities.
               1          2          3          4          5          6
     1  C   -0.365952  -0.007216   0.005376   0.007710   0.005376  -0.007216
     2  C   -0.007216   0.087580   0.003409  -0.002598   0.001340   0.001026
     3  C    0.005376   0.003409  -0.075366  -0.005089   0.000096   0.001340
     4  C    0.007710  -0.002598  -0.005089   0.090573  -0.005089  -0.002598
     5  C    0.005376   0.001340   0.000096  -0.005089  -0.075365   0.003409
     6  C   -0.007216   0.001026   0.001340  -0.002598   0.003409   0.087577
     7  H   -0.000908   0.000419   0.004353   0.001742  -0.000038  -0.000096
     8  H   -0.000132   0.000009  -0.000023   0.000322  -0.000023   0.000009
     9  H   -0.000908  -0.000096  -0.000038   0.001742   0.004353   0.000419
    10  C   -0.000300  -0.000019   0.000001   0.000018   0.000407   0.000181
    11  C    0.006345  -0.000818   0.000005   0.000024  -0.000170  -0.006145
    12  C    0.000074   0.000000   0.000000  -0.000000  -0.000009   0.000008
    13  C    0.000016   0.000000  -0.000000   0.000003  -0.000280  -0.000392
    14  C    0.000000   0.000000  -0.000000  -0.000000  -0.000001  -0.000019
    15  C   -0.000000   0.000000   0.000000  -0.000000   0.000002   0.000007
    16  H   -0.000002  -0.000000  -0.000000   0.000003   0.000084   0.000062
    17  C   -0.000000  -0.000000   0.000000  -0.000000   0.000000   0.000002
    18  H    0.000000  -0.000000  -0.000000   0.000000   0.000000   0.000000
    19  H    0.000000   0.000000  -0.000000  -0.000000   0.000000   0.000000
    20  H   -0.000000   0.000000  -0.000000  -0.000000  -0.000000  -0.000000
    21  C   -0.000300   0.000181   0.000407   0.000018   0.000001  -0.000019
    22  C    0.006345  -0.006145  -0.000170   0.000024   0.000005  -0.000818
    23  C    0.000074   0.000008  -0.000009  -0.000000   0.000000   0.000000
    24  C    0.000016  -0.000392  -0.000280   0.000003  -0.000000   0.000000
    25  C    0.000000  -0.000019  -0.000001  -0.000000  -0.000000   0.000000
    26  C   -0.000000   0.000007   0.000002  -0.000000   0.000000   0.000000
    27  H   -0.000002   0.000062   0.000084   0.000003  -0.000000  -0.000000
    28  C   -0.000000   0.000002   0.000000  -0.000000   0.000000  -0.000000
    29  H    0.000000   0.000000   0.000000   0.000000  -0.000000  -0.000000
    30  H    0.000000   0.000000   0.000000  -0.000000  -0.000000   0.000000
    31  H   -0.000000  -0.000000  -0.000000  -0.000000  -0.000000   0.000000
    32  N    0.002356   0.012290   0.004531   0.000103   0.000043  -0.000143
    33  N   -0.000660   0.000354  -0.000015  -0.000000  -0.000000   0.000003
    34  N    0.002356  -0.000143   0.000043   0.000103   0.004531   0.012289
    35  N   -0.000660   0.000003  -0.000000  -0.000000  -0.000015   0.000354
    36  C   -0.000019   0.000000  -0.000000  -0.000000  -0.000000  -0.000004
    37  H    0.000001  -0.000000   0.000000   0.000000   0.000000  -0.000001
    38  H    0.000001  -0.000000   0.000000   0.000000   0.000000  -0.000001
    39  H    0.000014  -0.000000   0.000000   0.000000   0.000000   0.000000
    40  C   -0.000019  -0.000004  -0.000000  -0.000000  -0.000000   0.000000
    41  H    0.000001  -0.000001   0.000000   0.000000   0.000000  -0.000000
    42  H    0.000001  -0.000001   0.000000   0.000000   0.000000  -0.000000
    43  H    0.000014   0.000000   0.000000   0.000000   0.000000  -0.000000
    44  Co   0.019963  -0.010451  -0.001832   0.001020  -0.001832  -0.010451
               7          8          9         10         11         12
     1  C   -0.000908  -0.000132  -0.000908  -0.000300   0.006345   0.000074
     2  C    0.000419   0.000009  -0.000096  -0.000019  -0.000818   0.000000
     3  C    0.004353  -0.000023  -0.000038   0.000001   0.000005   0.000000
     4  C    0.001742   0.000322   0.001742   0.000018   0.000024  -0.000000
     5  C   -0.000038  -0.000023   0.004353   0.000407  -0.000170  -0.000009
     6  C   -0.000096   0.000009   0.000419   0.000181  -0.006145   0.000008
     7  H   -0.008376  -0.000130  -0.000023  -0.000000   0.000000  -0.000000
     8  H   -0.000130  -0.004287  -0.000130  -0.000000   0.000000   0.000000
     9  H   -0.000023  -0.000130  -0.008376  -0.000129   0.000016   0.000001
    10  C   -0.000000  -0.000000  -0.000129  -0.004622   0.001669  -0.002026
    11  C    0.000000   0.000000   0.000016   0.001669   0.203992  -0.002155
    12  C   -0.000000   0.000000   0.000001  -0.002026  -0.002155  -0.028607
    13  C    0.000000   0.000000   0.000171   0.004468   0.000271   0.000615
    14  C    0.000000   0.000000   0.000001   0.000915   0.000561  -0.000268
    15  C    0.000000   0.000000   0.000006  -0.000778  -0.000027   0.000218
    16  H   -0.000000  -0.000000  -0.000176  -0.000181   0.000000  -0.000006
    17  C   -0.000000  -0.000000  -0.000000   0.000130  -0.000014  -0.000221
    18  H   -0.000000  -0.000000  -0.000000  -0.000011  -0.000003  -0.000086
    19  H   -0.000000  -0.000000  -0.000000   0.000002  -0.000000  -0.000008
    20  H    0.000000   0.000000   0.000000  -0.000004   0.000000   0.000014
    21  C   -0.000129  -0.000000  -0.000000  -0.000000   0.000001  -0.000000
    22  C    0.000016   0.000000   0.000000   0.000001   0.001603   0.000000
    23  C    0.000001   0.000000  -0.000000  -0.000000   0.000000   0.000000
    24  C    0.000171   0.000000   0.000000   0.000000   0.000000   0.000000
    25  C    0.000001   0.000000   0.000000   0.000000   0.000000   0.000000
    26  C    0.000006   0.000000   0.000000  -0.000000  -0.000000   0.000000
    27  H   -0.000176  -0.000000  -0.000000  -0.000000   0.000000  -0.000000
    28  C   -0.000000  -0.000000  -0.000000  -0.000000  -0.000000   0.000000
    29  H   -0.000000  -0.000000  -0.000000   0.000000   0.000000  -0.000000
    30  H   -0.000000  -0.000000  -0.000000  -0.000000  -0.000000   0.000000
    31  H    0.000000   0.000000   0.000000   0.000000  -0.000000  -0.000000
    32  N   -0.000663  -0.000002  -0.000002  -0.000000  -0.000051  -0.000000
    33  N    0.000003   0.000000   0.000000   0.000000  -0.000003   0.000000
    34  N   -0.000002  -0.000002  -0.000663  -0.001287  -0.032099   0.001537
    35  N    0.000000   0.000000   0.000003  -0.000744  -0.041556   0.008434
    36  C    0.000000   0.000000   0.000000  -0.000031   0.001058   0.000373
    37  H   -0.000000  -0.000000  -0.000000   0.000003   0.000431  -0.000157
    38  H   -0.000000  -0.000000  -0.000000   0.000003   0.000432  -0.000158
    39  H   -0.000000  -0.000000  -0.000000   0.000001  -0.000741  -0.000063
    40  C    0.000000   0.000000   0.000000   0.000000  -0.000000  -0.000000
    41  H   -0.000000  -0.000000  -0.000000   0.000000   0.000000  -0.000000
    42  H   -0.000000  -0.000000  -0.000000   0.000000   0.000000  -0.000000
    43  H   -0.000000  -0.000000  -0.000000  -0.000000   0.000000   0.000000
    44  Co   0.000379   0.000033   0.000379   0.001418   0.059701   0.000078
              13         14         15         16         17         18
     1  C    0.000016   0.000000  -0.000000  -0.000002  -0.000000   0.000000
     2  C    0.000000   0.000000   0.000000  -0.000000  -0.000000  -0.000000
     3  C   -0.000000  -0.000000   0.000000  -0.000000   0.000000  -0.000000
     4  C    0.000003  -0.000000  -0.000000   0.000003  -0.000000   0.000000
     5  C   -0.000280  -0.000001   0.000002   0.000084   0.000000   0.000000
     6  C   -0.000392  -0.000019   0.000007   0.000062   0.000002   0.000000
     7  H    0.000000   0.000000   0.000000  -0.000000  -0.000000  -0.000000
     8  H    0.000000   0.000000   0.000000  -0.000000  -0.000000  -0.000000
     9  H    0.000171   0.000001   0.000006  -0.000176  -0.000000  -0.000000
    10  C    0.004468   0.000915  -0.000778  -0.000181   0.000130  -0.000011
    11  C    0.000271   0.000561  -0.000027   0.000000  -0.000014  -0.000003
    12  C    0.000615  -0.000268   0.000218  -0.000006  -0.000221  -0.000086
    13  C    0.019439   0.000969  -0.009490   0.000246  -0.001144  -0.000005
    14  C    0.000969   0.052123  -0.002133  -0.000001  -0.006521   0.000086
    15  C   -0.009490  -0.002133   0.030677   0.000006   0.005879  -0.000003
[...]
    40 C(13)  Bbb    -0.0033    -0.447    -0.160    -0.149 -0.6264  0.7795  0.0001
              Bcc     0.0089     1.199     0.428     0.400  0.7795  0.6264  0.0000
 
              Baa    -0.0040    -2.136    -0.762    -0.712 -0.0255  0.3445  0.9384
    41 H(1)   Bbb    -0.0025    -1.360    -0.485    -0.454 -0.6500  0.7075 -0.2774
              Bcc     0.0066     3.496     1.247     1.166  0.7595  0.6171 -0.2059
 
              Baa    -0.0040    -2.135    -0.762    -0.712  0.0256 -0.3445  0.9384
    42 H(1)   Bbb    -0.0025    -1.360    -0.485    -0.454 -0.6500  0.7075  0.2775
              Bcc     0.0066     3.495     1.247     1.166  0.7595  0.6171  0.2058
 
              Baa    -0.0078    -4.154    -1.482    -1.386  0.0002 -0.0003  1.0000
    43 H(1)   Bbb    -0.0067    -3.552    -1.267    -1.185  0.7501 -0.6613 -0.0003
              Bcc     0.0144     7.707     2.750     2.571  0.6613  0.7501  0.0001
 
              Baa    -0.8527  -107.681   -38.423   -35.919  1.0000  0.0000  0.0000
    44 Co(59) Bbb    -0.0736    -9.299    -3.318    -3.102 -0.0000  1.0000 -0.0000
              Bcc     0.9264   116.980    41.741    39.020 -0.0000  0.0000  1.0000
 

 ---------------------------------------------------------------------------------

   1 Symmetry operations used in ECPInt.
 ECPInt:  NShTT=   11781 NPrTT=   71406 LenC2=    9520 LenP2D=   32016.
 LDataN:  DoStor=T MaxTD1= 7 Len=  274
 Calling FoFJK, ICntrl=      2127 FMM=F ISym2X=0 I1Cent= 0 IOpClX= 1 NMat=1 NMatS=1 NMatT=0.
 -------------------------------------------------------------------
 Center     Atomic                   Forces (Hartrees/Bohr)
 Number     Number              X              Y              Z
 -------------------------------------------------------------------
      1        6          -0.000001944   -0.067588455   -0.000007182
      2        6           0.052155532    0.030276517    0.000005211
      3        6          -0.004924770    0.002918139    0.000000622
      4        6           0.000000971    0.001020942   -0.000001356
      5        6           0.004923449    0.002921061    0.000000510
      6        6          -0.052150063    0.030271322    0.000004244
      7        1          -0.000045007    0.004103206   -0.000000993
      8        1          -0.000000020   -0.000457309   -0.000000122
      9        1           0.000044669    0.004103069   -0.000001117
     10        6          -0.008154856   -0.004544196    0.000000346
     11        6           0.000619282    0.003738296   -0.000014506
     12        6           0.010559291    0.003973386   -0.000000735
     13        6           0.009497566    0.002642459   -0.000001229
     14        6           0.001091470    0.004959875   -0.000000378
     15        6          -0.009536088    0.005578927    0.000000692
     16        1           0.000510539   -0.000144259   -0.000000337
     17        6           0.000243631   -0.009577575   -0.000000133
     18        1           0.000966637    0.000249928    0.000000149
     19        1           0.000186008   -0.000343358   -0.000000059
     20        1           0.000296580    0.000218286    0.000000155
     21        6           0.008146565   -0.004529459   -0.000000495
     22        6          -0.000618689    0.003738450   -0.000016177
     23        6          -0.010555123    0.003970229   -0.000001017
     24        6          -0.009491803    0.002628601   -0.000000852
     25        6          -0.001096867    0.004963279   -0.000000883
     26        6           0.009535345    0.005586328    0.000000232
     27        1          -0.000509599   -0.000140501   -0.000000152
     28        6          -0.000242036   -0.009585260    0.000000140
     29        1          -0.000966395    0.000249633   -0.000000044
     30        1          -0.000184533   -0.000345424   -0.000000099
     31        1          -0.000296558    0.000218618    0.000000169
     32        7          -0.016915536   -0.045207742    0.000006760
     33        7           0.020017472    0.017049924    0.000008679
     34        7           0.016913630   -0.045201274    0.000004316
     35        7          -0.020019035    0.017050450    0.000007329
     36        6           0.000200670   -0.008402056   -0.000000305
     37        1           0.000681289    0.001138397    0.000631618
     38        1           0.000680635    0.001138698   -0.000632203
     39        1           0.000718291    0.001706685    0.000000708
     40        6          -0.000199995   -0.008401433   -0.000000308
     41        1          -0.000680446    0.001139381   -0.000632313
     42        1          -0.000681424    0.001138443    0.000631498
     43        1          -0.000718164    0.001706333    0.000000792
     44       27          -0.000000571    0.044069439    0.000008825
 -------------------------------------------------------------------
 Cartesian Forces:  Max     0.067588455 RMS     0.012677959

 GradGradGradGradGradGradGradGradGradGradGradGradGradGradGradGradGradGrad
 Berny optimization.
 Search for a local minimum.
 Step number   1 out of a maximum of    2
 All quantities printed in internal units (Hartrees-Bohrs-Radians)
 Second derivative matrix not updated -- first step.
 ITU=  0
     Eigenvalues ---    0.00055   0.00058   0.00198   0.00245   0.00245
     Eigenvalues ---    0.00385   0.00442   0.00611   0.00660   0.00669
     Eigenvalues ---    0.00673   0.00820   0.00843   0.01320   0.01568
     Eigenvalues ---    0.01806   0.02019   0.02040   0.02533   0.02537
     Eigenvalues ---    0.03056   0.03119   0.04097   0.04198   0.04424
     Eigenvalues ---    0.04498   0.04673   0.05372   0.05525   0.06163
     Eigenvalues ---    0.06213   0.06901   0.06931   0.07034   0.07057
     Eigenvalues ---    0.07059   0.07277   0.07673   0.07742   0.09585
     Eigenvalues ---    0.09933   0.10172   0.10369   0.11523   0.11904
     Eigenvalues ---    0.11972   0.12188   0.12261   0.12811   0.13364
     Eigenvalues ---    0.13367   0.13444   0.13653   0.14754   0.15387
     Eigenvalues ---    0.15606   0.15872   0.19436   0.20028   0.20072
     Eigenvalues ---    0.21056   0.21989   0.24073   0.24790   0.28626
     Eigenvalues ---    0.29544   0.29854   0.30334   0.30799   0.31618
     Eigenvalues ---    0.31938   0.34724   0.35738   0.36569   0.37516
     Eigenvalues ---    0.37785   0.41191   0.41789   0.44597   0.47237
     Eigenvalues ---    0.48410   0.48488   0.49239   0.50988   0.52009
     Eigenvalues ---    0.53561   0.54243   0.54942   0.62782   0.63531
     Eigenvalues ---    0.68736   0.71307   0.72751   0.74025   0.86647
     Eigenvalues ---    0.90382   0.91049   0.91297   0.93123   0.94434
     Eigenvalues ---    0.95290   0.96947   1.00111   1.04205   1.12396
     Eigenvalues ---    1.15777   1.15836   1.18405   1.20743   1.24422
     Eigenvalues ---    1.31036   1.37788   1.37953   1.45625   1.47261
     Eigenvalues ---    1.49768   1.51044   1.53687   1.60946   1.64484
     Eigenvalues ---    1.65937   1.67003   1.77783   1.79068   1.84796
     Eigenvalues ---    1.88233
 Quadratic step=4.283D-01 exceeds max=3.000D-01 adjusted using Lamda=-1.038D-02.
 Angle between NR and scaled steps=  20.08 degrees.
 Angle between quadratic step and forces=  52.75 degrees.
 Linear search not attempted -- first point.
 B after Tr=    -0.000000   -0.001448   -0.000001
         Rot=    1.000000   -0.000000   -0.000000   -0.000000 Ang=  -0.00 deg.
 Variable       Old X    -DE/DX   Delta X   Delta X   Delta X     New X
                                 (Linear)    (Quad)   (Total)
    X1        0.00000  -0.00000   0.00000  -0.00000  -0.00000   0.00000
    Y1        1.50375  -0.06759   0.00000  -0.14003  -0.14148   1.36227
    Z1        0.00022  -0.00001   0.00000  -0.00002  -0.00002   0.00020
    X2       -2.41854   0.05216   0.00000   0.07906   0.07906  -2.33948
    Y2        2.56939   0.03028   0.00000  -0.02537  -0.02682   2.54257
    Z2        0.00005   0.00001   0.00000   0.00003   0.00004   0.00008
    X3       -2.35319  -0.00492   0.00000   0.02440   0.02440  -2.32878
    Y3        5.20721   0.00292   0.00000  -0.00889  -0.01033   5.19688
    Z3       -0.00003   0.00000   0.00000   0.00003   0.00003   0.00001
    X4        0.00000   0.00000   0.00000  -0.00000  -0.00000   0.00000
    Y4        6.43421   0.00102   0.00000   0.01260   0.01115   6.44537
    Z4        0.00001  -0.00000   0.00000   0.00000   0.00001   0.00002
    X5        2.35319   0.00492   0.00000  -0.02441  -0.02441   2.32879
    Y5        5.20721   0.00292   0.00000  -0.00888  -0.01033   5.19688
    Z5        0.00006   0.00000   0.00000   0.00002   0.00002   0.00008
    X6        2.41854  -0.05215   0.00000  -0.07905  -0.07905   2.33948
    Y6        2.56940   0.03027   0.00000  -0.02537  -0.02682   2.54258
    Z6        0.00012   0.00000   0.00000   0.00002   0.00002   0.00014
    X7       -4.07893  -0.00005   0.00000   0.02395   0.02395  -4.05498
    Y7        6.30708   0.00410   0.00000   0.00314   0.00169   6.30877
    Z7       -0.00008  -0.00000   0.00000   0.00001   0.00001  -0.00007
    X8        0.00000  -0.00000   0.00000  -0.00000  -0.00000   0.00000
    Y8        8.48852  -0.00046   0.00000   0.01100   0.00955   8.49807
    Z8       -0.00002  -0.00000   0.00000  -0.00002  -0.00001  -0.00003
    X9        4.07895   0.00004   0.00000  -0.02396  -0.02396   4.05499
    Y9        6.30708   0.00410   0.00000   0.00315   0.00170   6.30878
    Z9        0.00009  -0.00000   0.00000  -0.00001  -0.00001   0.00008
   X10        6.97672  -0.00815   0.00000  -0.04029  -0.04029   6.93643
   Y10        1.09908  -0.00454   0.00000  -0.01230  -0.01374   1.08534
   Z10       -0.00006   0.00000   0.00000  -0.00000  -0.00000  -0.00006
   X11        3.62714   0.00062   0.00000  -0.04336  -0.04336   3.58379
   Y11       -1.71925   0.00374   0.00000   0.00472   0.00328  -1.71597
   Z11        0.00026  -0.00001   0.00000  -0.00006  -0.00006   0.00019
   X12        7.91346   0.01056   0.00000  -0.02290  -0.02290   7.89056
   Y12       -1.40375   0.00397   0.00000   0.00687   0.00542  -1.39833
   Z12       -0.00018  -0.00000   0.00000   0.00000   0.00000  -0.00018
   X13        8.59659   0.00950   0.00000  -0.03234  -0.03234   8.56424
   Y13        3.14557   0.00264   0.00000  -0.00268  -0.00413   3.14144
   Z13       -0.00011  -0.00000   0.00000  -0.00001  -0.00001  -0.00012
   X14       10.49269   0.00109   0.00000  -0.02262  -0.02262  10.47008
   Y14       -1.88939   0.00496   0.00000   0.00588   0.00443  -1.88496
   Z14       -0.00037  -0.00000   0.00000   0.00001   0.00001  -0.00037
   X15       11.21021  -0.00954   0.00000  -0.04393  -0.04393  11.16629
   Y15        2.65334   0.00558   0.00000   0.00038  -0.00107   2.65227
   Z15       -0.00032   0.00000   0.00000  -0.00000  -0.00000  -0.00033
   X16        7.89644   0.00051   0.00000  -0.02395  -0.02395   7.87249
   Y16        5.06967  -0.00014   0.00000  -0.00077  -0.00222   5.06745
   Z16        0.00001  -0.00000   0.00000  -0.00002  -0.00002  -0.00001
   X17       12.12832   0.00024   0.00000  -0.02761  -0.02761  12.10072
   Y17        0.19851  -0.00958   0.00000  -0.00506  -0.00651   0.19200
   Z17       -0.00046  -0.00000   0.00000   0.00001   0.00001  -0.00045
   X18       11.20250   0.00097   0.00000  -0.01062  -0.01062  11.19188
   Y18       -3.81365   0.00025   0.00000   0.00962   0.00817  -3.80547
   Z18       -0.00045   0.00000   0.00000   0.00002   0.00001  -0.00044
   X19       12.51430   0.00019   0.00000  -0.04110  -0.04110  12.47320
   Y19        4.23764  -0.00034   0.00000  -0.00143  -0.00288   4.23476
   Z19       -0.00037  -0.00000   0.00000  -0.00001  -0.00001  -0.00038
   X20       14.15352   0.00030   0.00000  -0.02490  -0.02490  14.12863
   Y20       -0.13086   0.00022   0.00000   0.00251   0.00107  -0.12979
   Z20       -0.00062   0.00000   0.00000   0.00001   0.00001  -0.00061
   X21       -6.97670   0.00815   0.00000   0.04028   0.04028  -6.93642
   Y21        1.09906  -0.00453   0.00000  -0.01229  -0.01373   1.08533
   Z21       -0.00008  -0.00000   0.00000   0.00001   0.00001  -0.00007
   X22       -3.62713  -0.00062   0.00000   0.04335   0.04335  -3.58377
   Y22       -1.71925   0.00374   0.00000   0.00472   0.00328  -1.71598
   Z22        0.00019  -0.00002   0.00000  -0.00005  -0.00006   0.00014
   X23       -7.91345  -0.01056   0.00000   0.02291   0.02291  -7.89055
   Y23       -1.40376   0.00397   0.00000   0.00687   0.00542  -1.39833
   Z23       -0.00013  -0.00000   0.00000   0.00000   0.00000  -0.00013
   X24       -8.59659  -0.00949   0.00000   0.03235   0.03235  -8.56424
   Y24        3.14557   0.00263   0.00000  -0.00269  -0.00414   3.14143
   Z24       -0.00011  -0.00000   0.00000  -0.00001  -0.00000  -0.00011
   X25      -10.49268  -0.00110   0.00000   0.02261   0.02261 -10.47006
   Y25       -1.88941   0.00496   0.00000   0.00588   0.00443  -1.88498
   Z25       -0.00019  -0.00000   0.00000  -0.00001  -0.00001  -0.00020
   X26      -11.21021   0.00954   0.00000   0.04393   0.04393 -11.16628
   Y26        2.65332   0.00559   0.00000   0.00038  -0.00107   2.65226
   Z26       -0.00019   0.00000   0.00000  -0.00001  -0.00001  -0.00020
   X27       -7.89644  -0.00051   0.00000   0.02396   0.02396  -7.87248
   Y27        5.06966  -0.00014   0.00000  -0.00076  -0.00221   5.06744
   Z27       -0.00005  -0.00000   0.00000  -0.00001  -0.00001  -0.00005
   X28      -12.12832  -0.00024   0.00000   0.02761   0.02761 -12.10071
   Y28        0.19850  -0.00959   0.00000  -0.00507  -0.00652   0.19198
   Z28       -0.00024   0.00000   0.00000  -0.00000  -0.00000  -0.00024
   X29      -11.20249  -0.00097   0.00000   0.01062   0.01062 -11.19187
   Y29       -3.81366   0.00025   0.00000   0.00962   0.00817  -3.80549
   Z29       -0.00019  -0.00000   0.00000  -0.00001  -0.00001  -0.00020
   X30      -12.51430  -0.00018   0.00000   0.04111   0.04111 -12.47320
   Y30        4.23762  -0.00035   0.00000  -0.00143  -0.00288   4.23474
   Z30       -0.00021  -0.00000   0.00000  -0.00001  -0.00001  -0.00021
   X31      -14.15352  -0.00030   0.00000   0.02490   0.02490 -14.12862
   Y31       -0.13088   0.00022   0.00000   0.00251   0.00106  -0.12982
   Z31       -0.00029   0.00000   0.00000   0.00000   0.00000  -0.00029
   X32       -4.35732  -0.01692   0.00000   0.03565   0.03565  -4.32167
   Y32        0.88787  -0.04521   0.00000  -0.05023  -0.05168   0.83619
   Z32        0.00003   0.00001   0.00000   0.00002   0.00002   0.00005
   X33       -5.89528   0.02002   0.00000   0.05568   0.05568  -5.83960
   Y33       -3.03222   0.01705   0.00000   0.02723   0.02579  -3.00644
   Z33       -0.00009   0.00001   0.00000   0.00001   0.00001  -0.00008
   X34        4.35733   0.01691   0.00000  -0.03565  -0.03565   4.32168
   Y34        0.88787  -0.04520   0.00000  -0.05023  -0.05168   0.83620
   Z34        0.00014   0.00000   0.00000   0.00000   0.00000   0.00015
   X35        5.89530  -0.02002   0.00000  -0.05568  -0.05568   5.83962
   Y35       -3.03221   0.01705   0.00000   0.02723   0.02579  -3.00643
   Z35       -0.00007   0.00001   0.00000   0.00000  -0.00000  -0.00007
   X36        6.04986   0.00020   0.00000  -0.02759  -0.02759   6.02227
   Y36       -5.72451  -0.00840   0.00000   0.01548   0.01404  -5.71047
   Z36        0.00001  -0.00000   0.00000   0.00001   0.00000   0.00002
   X37        7.02746   0.00068   0.00000  -0.00941  -0.00941   7.01806
   Y37       -6.42816   0.00114   0.00000   0.03640   0.03496  -6.39321
   Z37       -1.68819   0.00063   0.00000   0.00320   0.00319  -1.68500
   X38        7.02658   0.00068   0.00000  -0.00942  -0.00942   7.01716
   Y38       -6.42819   0.00114   0.00000   0.03640   0.03495  -6.39323
   Z38        1.68873  -0.00063   0.00000  -0.00316  -0.00317   1.68556
   X39        4.13359   0.00072   0.00000  -0.01952  -0.01952   4.11407
   Y39       -6.49952   0.00171   0.00000   0.00693   0.00548  -6.49404
   Z39       -0.00052   0.00000   0.00000   0.00001  -0.00000  -0.00052
   X40       -6.04985  -0.00020   0.00000   0.02759   0.02759  -6.02226
   Y40       -5.72452  -0.00840   0.00000   0.01549   0.01404  -5.71048
   Z40        0.00008  -0.00000   0.00000   0.00002   0.00001   0.00009
   X41       -7.02645  -0.00068   0.00000   0.00943   0.00943  -7.01702
   Y41       -6.42816   0.00114   0.00000   0.03641   0.03496  -6.39320
   Z41        1.68889  -0.00063   0.00000  -0.00315  -0.00316   1.68573
   X42       -7.02757  -0.00068   0.00000   0.00941   0.00940  -7.01816
   Y42       -6.42822   0.00114   0.00000   0.03641   0.03496  -6.39326
   Z42       -1.68804   0.00063   0.00000   0.00320   0.00320  -1.68484
   X43       -4.13358  -0.00072   0.00000   0.01952   0.01952  -4.11406
   Y43       -6.49952   0.00171   0.00000   0.00693   0.00548  -6.49404
   Z43       -0.00058   0.00000   0.00000   0.00001   0.00001  -0.00057
   X44        0.00001  -0.00000   0.00000  -0.00000  -0.00000   0.00001
   Y44       -2.36583   0.04407   0.00000   0.08243   0.08098  -2.28485
   Z44        0.00018   0.00001   0.00000  -0.00004  -0.00004   0.00013
         Item               Value     Threshold  Converged?
 Maximum Force            0.067588     0.000450     NO 
 RMS     Force            0.012678     0.000300     NO 
 Maximum Displacement     0.141479     0.001800     NO 
 RMS     Displacement     0.026119     0.001200     NO 
 Predicted change in Energy=-1.370341D-02
 GradGradGradGradGradGradGradGradGradGradGradGradGradGradGradGradGradGrad

 Unable to Open any file for archive entry.
 1\1\GINC-X11P1N5\Force\UPBE1PBE\GenECP\C22H17Co1N4(3)\MAYUMIAO\17-Jul-
 2024\0\\# pbe1pbe em=gd3bj genecp g09default scf=(xqc,maxcycle=64) for
 ce guess=read nosymm\\Title Card\\0,3\C,0.00000222,0.79574797,0.000115
 36\C,-1.27983389,1.35966273,0.00002545\C,-1.24525226,2.75553754,-0.000
 01379\C,0.00000141,3.40483806,0.00000774\C,1.2452569,2.75553686,0.0000
 3349\C,1.27983385,1.35966566,0.00006399\H,-2.15847935,3.33756291,-0.00
 004182\H,0.00000146,4.49193267,-0.00000842\H,2.15848487,3.33756144,0.0
 0004737\C,3.69192018,0.58160835,-0.00003018\C,1.91940129,-0.90978597,0
 .0001367\C,4.187623,-0.74283166,-0.00009587\C,4.54911736,1.66456524,-0
 .00005991\C,5.55249347,-0.99982267,-0.00019822\C,5.93218975,1.40408867
 ,-0.00017125\H,4.17861496,2.68275375,0.00000651\C,6.41803206,0.1050479
 2,-0.00024289\H,5.92810979,-2.0180957,-0.00024055\H,6.62228173,2.24246
 162,-0.00019658\H,7.48972239,-0.0692482,-0.00032823\C,-3.69191327,0.58
 159772,-0.00004212\C,-1.91939369,-0.90978908,0.00010317\C,-4.18761808,
 -0.74283663,-0.00007004\C,-4.54911881,1.66456419,-0.00005573\C,-5.5524
 8458,-0.99983103,-0.00010043\C,-5.9321889,1.40407826,-0.00010089\H,-4.
 17861579,2.68274637,-0.00002424\C,-6.41802884,0.10504204,-0.00012447\H
 ,-5.92810226,-2.01810313,-0.00010161\H,-6.62228457,2.24245336,-0.00010
 903\H,-7.48971815,-0.06926037,-0.00015378\N,-2.3057927,0.46984284,0.00
 001406\N,-3.1196499,-1.6045834,-0.00004723\N,2.3057974,0.46984205,0.00
 007652\N,3.11965825,-1.60457888,-0.0000346\C,3.20144785,-3.02927919,0.
 00000765\H,3.71877369,-3.40163714,-0.89335309\H,3.71830855,-3.40165034
 ,0.89363775\H,2.18740233,-3.43939646,-0.00027454\C,-3.20144033,-3.0292
 8467,0.00004384\H,-3.71823548,-3.40163723,0.89372077\H,-3.71882932,-3.
 40166662,-0.89326968\H,-2.1873939,-3.43939898,-0.00030443\Co,0.0000049
 9,-1.25194355,0.00009313\\Version=ES64L-G16RevC.01\HF=-1212.1158351\S2
 =2.310349\S2-1=0.\S2A=2.007612\RMSD=7.537e-10\RMSF=1.268e-02\Dipole=0.
 0000289,-1.3527503,-0.0000698\Quadrupole=8.3799932,10.9643389,-19.3443
 321,0.0000125,-0.0003261,0.0001216\PG=C01 [X(C22H17Co1N4)]\\@
 The archive entry for this job was punched.


 ERROR IS A HARDY PLANT... IT FLOURISHETH IN EVERY SOIL.
            MARTIN FARQUHAR TUPPER
 Job cpu time:       0 days  0 hours 47 minutes  8.2 seconds.
 Elapsed time:       0 days  0 hours  0 minutes 51.3 seconds.
 File lengths (MBytes):  RWF=    184 Int=      0 D2E=      0 Chk=     72 Scr=      1
 Normal termination of Gaussian 16 at Wed Jul 17 21:16:21 2024.
