 Entering Gaussian System, Link 0=g16
 Input=JOBS/29_A.gjf
 Output=JOBS/29_A.log
 Initial command:
 /data/app/gaussian/C01-avx2//g16/l1.exe "/tmp/Gau-2086701.inp" -scrdir="/tmp/"
 Entering Link 1 = /data/app/gaussian/C01-avx2//g16/l1.exe PID=   2086702.
  
 Copyright (c) 1988-2019, Gaussian, Inc.  All Rights Reserved.
  
 This is part of the Gaussian(R) 16 program.  It is based on
 the Gaussian(R) 09 system (copyright 2009, Gaussian, Inc.),
 the Gaussian(R) 03 system (copyright 2003, Gaussian, Inc.),
 the Gaussian(R) 98 system (copyright 1998, Gaussian, Inc.),
 the Gaussian(R) 94 system (copyright 1995, Gaussian, Inc.),
 the Gaussian 92(TM) system (copyright 1992, Gaussian, Inc.),
 the Gaussian 90(TM) system (copyright 1990, Gaussian, Inc.),
 the Gaussian 88(TM) system (copyright 1988, Gaussian, Inc.),
 the Gaussian 86(TM) system (copyright 1986, Carnegie Mellon
 University), and the Gaussian 82(TM) system (copyright 1983,
 Carnegie Mellon University). Gaussian is a federally registered
 trademark of Gaussian, Inc.
  
 This software contains proprietary and confidential information,
 including trade secrets, belonging to Gaussian, Inc.
  
 This software is provided under written license and may be
 used, copied, transmitted, or stored only in accord with that
 written license.
  
 The following legend is applicable only to US Government
 contracts under FAR:
  
                    RESTRICTED RIGHTS LEGEND
  
 Use, reproduction and disclosure by the US Government is
 subject to restrictions as set forth in subparagraphs (a)
 and (c) of the Commercial Computer Software - Restricted
 Rights clause in FAR 52.227-19.
  
 Gaussian, Inc.
 340 Quinnipiac St., Bldg. 40, Wallingford CT 06492
  
  
 ---------------------------------------------------------------
 Warning -- This program may not be used in any manner that
 competes with the business of Gaussian, Inc. or will provide
 assistance to any competitor of Gaussian, Inc.  The licensee
 of this program is prohibited from giving any competitor of
 Gaussian, Inc. access to this program.  By using this program,
 the user acknowledges that Gaussian, Inc. is engaged in the
 business of creating and licensing software in the field of
 computational chemistry and represents and warrants to the
 licensee that it is not a competitor of Gaussian, Inc. and that
 it will not use this program in any manner prohibited above.
 ---------------------------------------------------------------
  

 Cite this work as:
 Gaussian 16, Revision C.01,
 M. J. Frisch, G. W. Trucks, H. B. Schlegel, G. E. Scuseria, 
 M. A. Robb, J. R. Cheeseman, G. Scalmani, V. Barone, 
 G. A. Petersson, H. Nakatsuji, X. Li, M. Caricato, A. V. Marenich, 
 J. Bloino, B. G. Janesko, R. Gomperts, B. Mennucci, H. P. Hratchian, 
 J. V. Ortiz, A. F. Izmaylov, J. L. Sonnenberg, D. Williams-Young, 
 F. Ding, F. Lipparini, F. Egidi, J. Goings, B. Peng, A. Petrone, 
 T. Henderson, D. Ranasinghe, V. G. Zakrzewski, J. Gao, N. Rega, 
 G. Zheng, W. Liang, M. Hada, M. Ehara, K. Toyota, R. Fukuda, 
 J. Hasegawa, M. Ishida, T. Nakajima, Y. Honda, O. Kitao, H. Nakai, 
 T. Vreven, K. Throssell, J. A. Montgomery, Jr., J. E. Peralta, 
 F. Ogliaro, M. J. Bearpark, J. J. Heyd, E. N. Brothers, K. N. Kudin, 
 V. N. Staroverov, T. A. Keith, R. Kobayashi, J. Normand, 
 K. Raghavachari, A. P. Rendell, J. C. Burant, S. S. Iyengar, 
 J. Tomasi, M. Cossi, J. M. Millam, M. Klene, C. Adamo, R. Cammi, 
 J. W. Ochterski, R. L. Martin, K. Morokuma, O. Farkas, 
 J. B. Foresman, and D. J. Fox, Gaussian, Inc., Wallingford CT, 2019.
 
 ******************************************
 Gaussian 16:  ES64L-G16RevC.01  3-Jul-2019
                17-Jul-2024 
 ******************************************
 %chk=a.chk
 %nprocshared=56
 Will use up to   56 processors via shared memory.
 %mem=96gb
 ----------------------------------------------------------------------
 # pbe1pbe em=gd3bj genecp g09default scf=(xqc,maxcycle=64) force guess
 =read nosymm
 ----------------------------------------------------------------------
 1/10=7,30=1,38=1,158=3,167=1/1,3;
 2/12=2,15=1,17=6,18=5,40=1/2;
 3/5=7,11=2,16=1,17=8,25=1,27=10,30=1,71=1,74=-13,75=-4,116=-2,124=41,158=3/1,2,3;
 4/5=1,60=-1/1;
 5/5=2,7=64,8=3,13=1,38=6,87=10/2,8;
 6/7=2,8=2,9=2,10=2,28=1,87=10/1;
 7/29=1,30=1,87=10/1,2,3,16;
 1/10=7,30=1,158=3,167=1/3;
 99//99;
 Using 2006 physical constants.
 ----------
 Title Card
 ----------
 Symbolic Z-matrix:
 Charge =  0 Multiplicity = 1
 6                    -0.00001   0.79403   0.00013 
 6                    -1.28012   1.36065   0.00002 
 6                    -1.24478   2.7535   -0.00001 
 6                     0.00001   3.40479   0.00001 
 6                     1.24477   2.7535    0.00003 
 6                     1.28014   1.36064   0.00006 
 1                    -2.15926   3.33804  -0.00004 
 1                     0.        4.49055  -0.00001 
 1                     2.15927   3.33804   0.00005 
 6                     3.69242   0.58226  -0.00003 
 6                     1.91909  -0.90944   0.00014 
 6                     4.18546  -0.74267  -0.0001 
 6                     4.54787   1.66436  -0.00006 
 6                     5.55304  -0.99959  -0.0002 
 6                     5.93248   1.40354  -0.00017 
 1                     4.17852   2.68274   0.00001 
 6                     6.41656   0.10506  -0.00024 
 1                     5.92759  -2.01793  -0.00024 
 1                     6.62188   2.24236  -0.0002 
 1                     7.48977  -0.06929  -0.00033 
 6                    -3.69244   0.58228  -0.00004 
 6                    -1.91908  -0.90944   0.0001 
 6                    -4.18541  -0.74267  -0.00007 
 6                    -4.54784   1.66432  -0.00006 
 6                    -5.55307  -0.9996   -0.0001 
 6                    -5.93249   1.40353  -0.0001 
 1                    -4.17852   2.68275  -0.00002 
 6                    -6.41654   0.10505  -0.00012 
 1                    -5.92758  -2.01793  -0.0001 
 1                    -6.62188   2.24235  -0.00011 
 1                    -7.48977  -0.0693   -0.00015 
 7                    -2.30517   0.46982   0.00002 
 7                    -3.1195   -1.60479  -0.00005 
 7                     2.30517   0.46984   0.00008 
 7                     3.11949  -1.60477  -0.00003 
 6                     3.20104  -3.02882   0.00001 
 1                     3.71855  -3.40127  -0.89333 
 1                     3.71808  -3.40129   0.89362 
 1                     2.18727  -3.43968  -0.00027 
 6                    -3.20103  -3.02882   0.00004 
 1                    -3.71801  -3.40127   0.8937 
 1                    -3.7186   -3.4013   -0.89325 
 1                    -2.18726  -3.43968  -0.0003 
 27                    0.       -1.25036   0.00008 
 

 GradGradGradGradGradGradGradGradGradGradGradGradGradGradGradGradGradGrad
 Berny optimization.
 Initialization pass.
 Trust Radius=3.00D-01 FncErr=1.00D-07 GrdErr=1.00D-07 EigMax=2.50D+02 EigMin=1.00D-04
 Number of steps in this run=      2 maximum allowed number of steps=      2.
 GradGradGradGradGradGradGradGradGradGradGradGradGradGradGradGradGradGrad

                          Input orientation:                          
 ---------------------------------------------------------------------
 Center     Atomic      Atomic             Coordinates (Angstroms)
 Number     Number       Type             X           Y           Z
 ---------------------------------------------------------------------
      1          6           0       -0.000010    0.794026    0.000126
      2          6           0       -1.280122    1.360646    0.000025
      3          6           0       -1.244779    2.753498   -0.000014
      4          6           0        0.000008    3.404787    0.000008
      5          6           0        1.244774    2.753505    0.000033
      6          6           0        1.280142    1.360640    0.000063
      7          1           0       -2.159261    3.338041   -0.000042
      8          1           0        0.000001    4.490547   -0.000009
      9          1           0        2.159268    3.338040    0.000047
     10          6           0        3.692416    0.582256   -0.000030
     11          6           0        1.919094   -0.909436    0.000136
     12          6           0        4.185462   -0.742671   -0.000095
     13          6           0        4.547869    1.664356   -0.000060
     14          6           0        5.553041   -0.999594   -0.000198
     15          6           0        5.932480    1.403535   -0.000171
     16          1           0        4.178523    2.682744    0.000007
     17          6           0        6.416557    0.105064   -0.000243
     18          1           0        5.927592   -2.017928   -0.000241
     19          1           0        6.621880    2.242361   -0.000197
     20          1           0        7.489774   -0.069287   -0.000328
     21          6           0       -3.692442    0.582279   -0.000042
     22          6           0       -1.919081   -0.909436    0.000103
     23          6           0       -4.185411   -0.742673   -0.000070
     24          6           0       -4.547843    1.664321   -0.000056
     25          6           0       -5.553071   -0.999605   -0.000101
     26          6           0       -5.932493    1.403530   -0.000101
     27          1           0       -4.178523    2.682746   -0.000024
     28          6           0       -6.416537    0.105050   -0.000124
     29          1           0       -5.927581   -2.017931   -0.000102
     30          1           0       -6.621880    2.242350   -0.000109
     31          1           0       -7.489775   -0.069300   -0.000154
     32          7           0       -2.305170    0.469824    0.000015
     33          7           0       -3.119500   -1.604786   -0.000046
     34          7           0        2.305172    0.469839    0.000078
     35          7           0        3.119491   -1.604775   -0.000034
     36          6           0        3.201038   -3.028820    0.000008
     37          1           0        3.718546   -3.401273   -0.893332
     38          1           0        3.718081   -3.401286    0.893616
     39          1           0        2.187267   -3.439675   -0.000275
     40          6           0       -3.201026   -3.028821    0.000044
     41          1           0       -3.718009   -3.401274    0.893700
     42          1           0       -3.718602   -3.401302   -0.893249
     43          1           0       -2.187259   -3.439678   -0.000304
     44         27           0        0.000004   -1.250356    0.000083
 ---------------------------------------------------------------------
                    Distance matrix (angstroms):
                    1          2          3          4          5
     1  C    0.000000
     2  C    1.399909   0.000000
     3  C    2.321418   1.393300   0.000000
     4  C    2.610760   2.411895   1.404874   0.000000
     5  C    2.321431   2.883601   2.489553   1.404853   0.000000
     6  C    1.399942   2.560263   2.883623   2.411904   1.393314
     7  H    3.336821   2.164018   1.085342   2.160300   3.453859
     8  H    3.696520   3.381566   2.137011   1.085760   2.137001
     9  H    3.336837   3.967302   3.453871   2.160292   1.085348
    10  C    3.698494   5.033093   5.393532   4.647640   3.271891
    11  C    2.566076   3.922787   4.840164   4.721802   3.724493
    12  C    4.458656   5.856325   6.458383   5.892320   4.568467
    13  C    4.630407   5.835898   5.894149   4.869511   3.478028
    14  C    5.835533   7.229305   7.765053   7.087648   5.713748
    15  C    5.963718   7.212729   7.303112   6.260929   4.878217
    16  H    4.585564   5.616471   5.423764   4.240441   2.934602
    17  C    6.453449   7.798420   8.106188   7.215281   5.810472
    18  H    6.560758   7.960270   8.614488   8.033809   6.685458
    19  H    6.778429   7.951041   7.883247   6.723127   5.401346
    20  H    7.539375   8.885706   9.179353   8.256257   6.853333
    21  C    3.698499   2.534787   3.271888   4.647659   5.393545
    22  C    2.566051   2.358292   3.724482   4.721802   4.840157
    23  C    4.458591   3.586734   4.568428   5.892296   6.458342
    24  C    4.630357   3.281802   3.478008   4.869514   5.894128
    25  C    5.835547   4.881484   5.713770   7.087690   7.765084
    26  C    5.963711   4.652569   4.878225   6.260957   7.303122
    27  H    4.585546   3.185699   2.934597   4.240455   5.423759
    28  C    6.453411   5.287654   5.810453   7.215283   8.106171
    29  H    6.560732   5.745751   6.685444   8.033814   8.614480
    30  H    6.778408   5.414036   5.401342   6.723143   7.883244
    31  H    7.539358   6.372169   6.853332   8.256277   9.179356
    32  N    2.327847   1.358046   2.517855   3.732003   4.221054
    33  N    3.935165   3.489571   4.744388   5.901453   6.167787
    34  N    2.327866   3.694302   4.221049   3.731983   2.517851
    35  N    3.935166   5.305687   6.167771   5.901431   4.744383
    36  C    4.986067   6.272815   7.293867   7.185951   6.104281
    37  H    5.676835   6.961368   7.956998   7.806922   6.693201
    38  H    5.676546   6.961073   7.956754   7.806743   6.693071
    39  H    4.765334   5.921644   7.080560   7.185455   6.264485
    40  C    4.986047   4.791377   6.104270   7.185953   7.293862
    41  H    5.676490   5.423821   6.693042   7.806714   7.956705
    42  H    5.676868   5.424047   6.693223   7.806972   7.957054
    43  H    4.765324   4.885286   6.264480   7.185460   7.080563
    44  Co   2.044382   2.907930   4.192891   4.655143   4.192893
                    6          7          8          9         10
     6  C    0.000000
     7  H    3.967318   0.000000
     8  H    3.381579   2.447588   0.000000
     9  H    2.164018   4.318529   2.447592   0.000000
    10  C    2.534748   6.468112   5.376677   3.153551   0.000000
    11  C    2.358285   5.888467   5.730858   4.254261   2.317287
    12  C    3.586754   7.543721   6.701093   4.556058   1.413693
    13  C    3.281811   6.912801   5.354480   2.916613   1.379398
    14  C    4.881431   8.848428   7.808834   5.507518   2.442166
    15  C    4.652536   8.319771   6.687596   4.240216   2.385872
    16  H    3.185683   6.371572   4.552823   2.122923   2.156003
    17  C    5.287649   9.164977   7.772043   5.345713   2.765621
    18  H    5.745739   9.699670   8.803214   6.548790   3.428844
    19  H    5.414019   8.849235   6.993112   4.595152   3.367151
    20  H    6.372144  10.232974   8.768625   6.326465   3.852848
    21  C    5.033134   3.153549   5.376681   6.468132   7.384858
    22  C    3.922789   4.254262   5.730854   5.888462   5.806380
    23  C    5.856295   4.556041   6.701065   7.543684   7.988467
    24  C    5.835892   2.916618   5.354479   6.912791   8.311001
    25  C    7.229354   5.507551   7.808865   8.848465   9.379836
    26  C    7.212762   4.240237   6.687612   8.319791   9.659884
    27  H    5.616492   2.122929   4.552824   6.371578   8.146394
    28  C    7.798421   5.345711   7.772036   9.164969  10.120211
    29  H    7.960276   6.548791   8.803210   9.699667   9.965205
    30  H    7.951061   4.595161   6.993118   8.849243  10.447039
    31  H    8.885728   6.326479   8.768634  10.232985  11.201157
    32  N    3.694321   2.871925   4.634654   5.306398   5.998640
    33  N    5.305714   5.035236   6.847216   7.231661   7.154394
    34  N    1.358018   5.306388   4.634641   2.871909   1.391791
    35  N    3.489540   7.231643   6.847201   5.035220   2.260829
    36  C    4.791367   8.322844   8.172363   6.451526   3.644355
    37  H    5.424001   8.986931   8.769630   6.974798   4.082545
    38  H    5.423830   8.986674   8.769476   6.974731   4.082631
    39  H    4.885274   8.051692   8.226333   6.777773   4.294346
    40  C    6.272816   6.451527   8.172359   8.322839   7.781993
    41  H    6.961028   6.974728   8.769443   8.986620   8.460595
    42  H    6.961432   6.974820   8.769673   8.986994   8.461074
    43  H    5.921649   6.777777   8.226334   8.051693   7.123661
    44  Co   2.907929   5.071076   5.740903   5.071074   4.122181
                   11         12         13         14         15
    11  C    0.000000
    12  C    2.272494   0.000000
    13  C    3.678975   2.434156   0.000000
    14  C    3.635065   1.391504   2.847279   0.000000
    15  C    4.632181   2.767359   1.408963   2.432900   0.000000
    16  H    4.243675   3.425422   1.083297   3.930511   2.170885
    17  C    4.610465   2.386722   2.433801   1.402116   1.385770
    18  H    4.158943   2.159004   3.932283   1.085031   3.421467
    19  H    5.661274   3.853122   2.153048   3.413604   1.085772
    20  H    5.633677   3.372229   3.414722   2.148583   2.143448
    21  C    5.806424   7.988546   8.311054   9.379834   9.659896
    22  C    3.838176   6.106820   6.960305   7.472666   8.185160
    23  C    6.106783   8.370873   9.058916   9.741841  10.343014
    24  C    6.960281   9.058931   9.095712  10.446258  10.483568
    25  C    7.472710   9.741922  10.446323  11.106112  11.734265
    26  C    8.185184  10.343074  10.483607  11.734244  11.864973
    27  H    7.077055   9.038236   8.785615  10.404949  10.191602
    28  C    8.397139  10.635836  11.074729  12.020443  12.417097
    29  H    7.924586  10.193131  11.103795  11.525696  12.343722
    30  H    9.103955  11.212002  11.184693  12.599163  12.582352
    31  H    9.446303  11.694639  12.161843  13.075951  13.502821
    32  N    4.443734   6.602912   6.956367   7.994415   8.290397
    33  N    5.086349   7.355658   8.335216   8.693631   9.538781
    34  N    1.432291   2.237335   2.540975   3.564812   3.745550
    35  N    1.387245   1.370954   3.567559   2.507669   4.118596
    36  C    2.476927   2.489089   4.882607   3.106393   5.206395
    37  H    3.200869   2.843246   5.210212   3.151368   5.365205
    38  H    3.200621   2.843484   5.210368   3.151842   5.365513
    39  H    2.544411   3.356578   5.623484   4.157214   6.122361
    40  C    5.541427   7.732184   9.059319   8.986180  10.152177
    41  H    6.227732   8.386411   9.735715   9.618705  10.817446
    42  H    6.228255   8.386910   9.736181   9.619205  10.817922
    43  H    4.823304   6.919929   8.450628   8.115803   9.454464
    44  Co   1.949137   4.216135   5.401723   5.558696   6.499031
                   16         17         18         19         20
    16  H    0.000000
    17  C    3.413683   0.000000
    18  H    5.015532   2.178573   0.000000
    19  H    2.482726   2.147137   4.316492   0.000000
    20  H    4.305584   1.087287   2.497522   2.469201   0.000000
    21  C    8.146414  10.120257   9.965246  10.447063  11.201183
    22  C    7.077043   8.397147   7.924584   9.103947   9.446291
    23  C    9.038191  10.635807  10.193091  11.211957  11.694589
    24  C    8.785594  11.074717  11.103770  11.184671  12.161810
    25  C   10.404981  12.020495  11.525737  12.599198  13.075982
    26  C   10.191616  12.417128  12.343743  12.582365  13.502831
    27  H    8.357046  10.904135  11.145846  10.809377  11.988446
    28  C   10.904119  12.833095  12.525357  13.212435  13.907404
    29  H   11.145837  12.525368  11.855172  13.252888  13.558120
    30  H   10.809379  13.212450  13.252895  13.243760  14.299736
    31  H   11.988450  13.907425  13.558130  14.299741  14.979549
    32  N    6.850934   8.729351   8.600423   9.101325   9.809769
    33  N    8.464281   9.688136   9.056520  10.473539  10.719816
    34  N    2.899378   4.127535   4.394418   4.666455   5.212557
    35  N    4.416375   3.714053   2.838331   5.202613   4.632180
    36  C    5.794605   4.490077   2.907920   6.283909   5.210767
    37  H    6.166433   4.513454   2.755202   6.409185   5.110944
    38  H    6.166521   4.513895   2.755830   6.409501   5.111460
    39  H    6.438099   5.518340   4.001424   7.207727   6.283001
    40  C    9.331651  10.115292   9.184419  11.147862  11.092882
    41  H   10.008455  10.761179   9.785213  11.813677  11.726714
    42  H   10.008902  10.761669   9.785716  11.814146  11.727205
    43  H    8.832171   9.305421   8.238457  10.482677  10.247171
    44  Co   5.738406   6.558149   5.977078   7.486542   7.582320
                   21         22         23         24         25
    21  C    0.000000
    22  C    2.317331   0.000000
    23  C    1.413689   2.272457   0.000000
    24  C    1.379321   3.678942   2.434128   0.000000
    25  C    2.442191   3.635109   1.391585   2.847277   0.000000
    26  C    2.385850   4.632201   2.767397   1.408995   2.432903
    27  H    2.155977   4.243683   3.425426   1.083322   3.930533
    28  C    2.765581   4.610455   2.386747   2.433792   1.402083
    29  H    3.428838   4.158945   2.159036   3.932258   1.085009
    30  H    3.367112   5.661278   3.853147   2.153078   3.413593
    31  H    3.852829   5.633689   3.372277   3.414733   2.148555
    32  N    1.391823   1.432279   2.237288   2.540946   3.564840
    33  N    2.260866   1.387270   1.370914   3.567524   2.507691
    34  N    5.998669   4.443728   6.602868   6.956336   7.994452
    35  N    7.154414   5.086326   7.355598   8.335167   8.693652
    36  C    7.782037   5.541427   7.732147   9.059290   8.986220
    37  H    8.461052   6.228187   8.386812   9.736086   9.619187
    38  H    8.460690   6.227784   8.386423   9.735735   9.618788
    39  H    7.123699   4.823298   6.919888   8.450591   8.115835
    40  C    3.644383   2.476928   2.489073   4.882571   3.106419
    41  H    4.082661   3.200611   2.843492   5.210343   3.151880
    42  H    4.082575   3.200899   2.843236   5.210180   3.151372
    43  H    4.294382   2.544415   3.356553   5.623448   4.157241
    44  Co   4.122222   1.949132   4.216094   5.401691   5.558734
                   26         27         28         29         30
    26  C    0.000000
    27  H    2.170899   0.000000
    28  C    1.385767   3.413681   0.000000
    29  H    3.421465   5.015532   2.178561   0.000000
    30  H    1.085759   2.482729   2.147141   4.316485   0.000000
    31  H    2.143445   4.305594   1.087307   2.497521   2.469203
    32  N    3.745568   2.899392   4.127518   4.394404   4.666459
    33  N    4.118604   4.416385   3.714027   2.838310   5.202607
    34  N    8.290411   6.850931   8.729335   8.600420   9.101322
    35  N    9.538780   8.464269   9.688103   9.056501  10.473523
    36  C   10.152198   9.331661  10.115280   9.184420  11.147868
    37  H   10.817881  10.008845  10.761600   9.785666  11.814091
    38  H   10.817513  10.008516  10.761211   9.785254  11.813728
    39  H    9.454477   8.832175   9.305403   8.238453  10.482675
    40  C    5.206405   5.794609   4.490063   2.907920   6.283907
    41  H    5.365535   6.166531   4.513899   2.755853   6.409512
    42  H    5.365207   6.166443   4.513429   2.755180   6.409176
    43  H    6.122373   6.438106   5.518324   4.001421   7.207726
    44  Co   6.499049   5.738412   6.558135   5.977076   7.486544
                   31         32         33         34         35
    31  H    0.000000
    32  N    5.212560   0.000000
    33  N    4.632172   2.228709   0.000000
    34  N    9.809774   4.610342   5.807852   0.000000
    35  N   10.719805   5.807832   6.238991   2.228708   0.000000
    36  C   11.092891   6.523713   6.478971   3.611536   1.426378
    37  H   11.727159   7.215859   7.126303   4.216790   2.093861
    38  H   11.726764   7.215509   7.125908   4.216674   2.093890
    39  H   10.247173   5.955348   5.615032   3.911292   2.058131
    40  C    5.210771   3.611520   1.426366   6.523714   6.478954
    41  H    5.111481   4.216656   2.093887   7.215455   7.125839
    42  H    5.110930   4.216792   2.093849   7.215929   7.126350
    43  H    6.283003   3.911280   2.058131   5.955356   5.615022
    44  Co   7.582327   2.876256   3.139574   2.876260   3.139556
                   36         37         38         39         40
    36  C    0.000000
    37  H    1.097539   0.000000
    38  H    1.097543   1.786948   0.000000
    39  H    1.093862   1.773088   1.773107   0.000000
    40  C    6.402064   6.986939   6.986504   5.403933   0.000000
    41  H    6.986460   7.648257   7.436090   5.972683   1.097549
    42  H    6.986993   7.437148   7.648343   5.973120   1.097543
    43  H    5.403938   5.973065   5.972739   4.374526   1.093859
    44  Co   3.661905   4.387731   4.387368   3.094711   3.661902
                   41         42         43         44
    41  H    0.000000
    42  H    1.786950   0.000000
    43  H    1.773109   1.773086   0.000000
    44  Co   4.387325   4.387784   3.094714   0.000000
 Symmetry turned off by external request.
 Stoichiometry    C22H17CoN4
 Framework group  C1[X(C22H17CoN4)]
 Deg. of freedom   126
 Full point group                 C1      NOp   1
 Rotational constants (GHZ):           0.4627340           0.1003821           0.0825745
 General basis read from cards:  (5D, 7F)
 ======================================================================================================
                                       Pseudopotential Parameters
 ======================================================================================================
  Center     Atomic      Valence      Angular      Power
  Number     Number     Electrons     Momentum     of R      Exponent        Coefficient   SO-Coeffient
 ======================================================================================================
    1          6
                                   No pseudopotential on this center.
    2          6
                                   No pseudopotential on this center.
    3          6
                                   No pseudopotential on this center.
    4          6
                                   No pseudopotential on this center.
    5          6
                                   No pseudopotential on this center.
    6          6
                                   No pseudopotential on this center.
    7          1
                                   No pseudopotential on this center.
    8          1
                                   No pseudopotential on this center.
    9          1
                                   No pseudopotential on this center.
   10          6
                                   No pseudopotential on this center.
   11          6
                                   No pseudopotential on this center.
   12          6
                                   No pseudopotential on this center.
   13          6
                                   No pseudopotential on this center.
   14          6
                                   No pseudopotential on this center.
   15          6
                                   No pseudopotential on this center.
   16          1
                                   No pseudopotential on this center.
   17          6
                                   No pseudopotential on this center.
   18          1
                                   No pseudopotential on this center.
   19          1
                                   No pseudopotential on this center.
   20          1
                                   No pseudopotential on this center.
   21          6
                                   No pseudopotential on this center.
   22          6
                                   No pseudopotential on this center.
   23          6
                                   No pseudopotential on this center.
   24          6
                                   No pseudopotential on this center.
   25          6
                                   No pseudopotential on this center.
   26          6
                                   No pseudopotential on this center.
   27          1
                                   No pseudopotential on this center.
   28          6
                                   No pseudopotential on this center.
   29          1
                                   No pseudopotential on this center.
   30          1
                                   No pseudopotential on this center.
   31          1
                                   No pseudopotential on this center.
   32          7
                                   No pseudopotential on this center.
   33          7
                                   No pseudopotential on this center.
   34          7
                                   No pseudopotential on this center.
   35          7
                                   No pseudopotential on this center.
   36          6
                                   No pseudopotential on this center.
   37          1
                                   No pseudopotential on this center.
   38          1
                                   No pseudopotential on this center.
   39          1
                                   No pseudopotential on this center.
   40          6
                                   No pseudopotential on this center.
   41          1
                                   No pseudopotential on this center.
   42          1
                                   No pseudopotential on this center.
   43          1
                                   No pseudopotential on this center.
   44         27           17
                                      F and up 
                                                     2        1.0000000        0.00000000    0.00000000
                                      S - F
                                                     2       23.6600000      283.96056600    0.00000000
                                                     2       10.6100000       47.15684600    0.00000000
                                      P - F
                                                     2       25.0400000      182.21223600    0.00000000
                                                     2       10.4400000       35.23335200    0.00000000
                                      D - F
                                                     2       29.5400000      -26.47533300    0.00000000
                                                     2       10.1800000       -1.82578700    0.00000000
 ======================================================================================================
   441 basis functions,   871 primitive gaussians,   473 cartesian basis functions
    97 alpha electrons       97 beta electrons
       nuclear repulsion energy      2484.7574685953 Hartrees.
 NAtoms=   44 NActive=   44 NUniq=   44 SFac= 1.00D+00 NAtFMM=   60 NAOKFM=F Big=F
 Integral buffers will be    131072 words long.
 Raffenetti 2 integral format.
 Two-electron integral symmetry is turned off.
 Nuclear repulsion after empirical dispersion term =     2484.6983763424 Hartrees.
 One-electron integrals computed using PRISM.
   1 Symmetry operations used in ECPInt.
 ECPInt:  NShTT=   11781 NPrTT=   71406 LenC2=    9520 LenP2D=   32024.
 LDataN:  DoStor=T MaxTD1= 6 Len=  172
 NBasis=   441 RedAO= T EigKep=  3.23D-04  NBF=   441
 NBsUse=   441 1.00D-06 EigRej= -1.00D+00 NBFU=   441
 Initial guess from the checkpoint file:  "a.chk"
 B after Tr=    -0.000000    0.000281   -0.000002
         Rot=    1.000000   -0.000000   -0.000000   -0.000000 Ang=  -0.00 deg.
 Initial guess <Sx>= 0.0000 <Sy>= 0.0000 <Sz>= 0.0000 <S**2>= 0.0000 S= 0.0000
 Requested convergence on RMS density matrix=1.00D-08 within  64 cycles.
 Requested convergence on MAX density matrix=1.00D-06.
 Requested convergence on             energy=1.00D-06.
 No special actions if energy rises.
 SCF Done:  E(UPBE1PBE) =  -1212.11777717     A.U. after   14 cycles
            NFock= 14  Conv=0.25D-08     -V/T= 2.0552
 <Sx>= 0.0000 <Sy>= 0.0000 <Sz>= 0.0000 <S**2>= 0.0000 S= 0.0000
 <L.S>=  0.00000000000    
 Annihilation of the first spin contaminant:
 S**2 before annihilation     0.0000,   after    -0.0000
 QCSCF skips out because SCF is already converged.

 **********************************************************************

            Population analysis using the SCF Density.

 **********************************************************************

 Alpha  occ. eigenvalues --  -14.45795 -14.45795 -14.45217 -14.45217 -10.28325
 Alpha  occ. eigenvalues --  -10.28325 -10.27637 -10.27636 -10.27465 -10.27465
 Alpha  occ. eigenvalues --  -10.27299 -10.27298 -10.25225 -10.25224 -10.24173
 Alpha  occ. eigenvalues --  -10.24173 -10.23946 -10.23946 -10.23483 -10.23482
 Alpha  occ. eigenvalues --  -10.23429 -10.23429 -10.21513 -10.21510 -10.21178
 Alpha  occ. eigenvalues --  -10.19141  -3.83133  -2.34877  -2.34832  -2.31045
 Alpha  occ. eigenvalues --   -1.05931  -1.05867  -0.97088  -0.96754  -0.88203
 Alpha  occ. eigenvalues --   -0.87946  -0.84997  -0.80347  -0.78802  -0.77911
 Alpha  occ. eigenvalues --   -0.77821  -0.75595  -0.75026  -0.72984  -0.71818
 Alpha  occ. eigenvalues --   -0.66531  -0.65203  -0.64564  -0.64082  -0.62636
 Alpha  occ. eigenvalues --   -0.61416  -0.58898  -0.57257  -0.56649  -0.54096
 Alpha  occ. eigenvalues --   -0.53199  -0.52010  -0.49722  -0.49665  -0.49095
 Alpha  occ. eigenvalues --   -0.48235  -0.47853  -0.47446  -0.46652  -0.46190
 Alpha  occ. eigenvalues --   -0.45763  -0.45341  -0.45023  -0.44588  -0.44054
 Alpha  occ. eigenvalues --   -0.42413  -0.41920  -0.41112  -0.38542  -0.38330
 Alpha  occ. eigenvalues --   -0.38313  -0.37573  -0.36863  -0.36852  -0.36730
 Alpha  occ. eigenvalues --   -0.35122  -0.34562  -0.34454  -0.33879  -0.31608
 Alpha  occ. eigenvalues --   -0.28998  -0.26686  -0.25939  -0.24736  -0.24410
 Alpha  occ. eigenvalues --   -0.22016  -0.21354  -0.20506  -0.20187  -0.16412
 Alpha  occ. eigenvalues --   -0.15331  -0.14870
 Alpha virt. eigenvalues --   -0.04509  -0.02509  -0.00701  -0.00028   0.00853
 Alpha virt. eigenvalues --    0.01324   0.02029   0.03286   0.05299   0.05920
 Alpha virt. eigenvalues --    0.06219   0.07300   0.08960   0.09289   0.10080
 Alpha virt. eigenvalues --    0.10450   0.12602   0.13124   0.14183   0.14226
 Alpha virt. eigenvalues --    0.15294   0.15637   0.15888   0.16026   0.16513
 Alpha virt. eigenvalues --    0.16827   0.17063   0.17663   0.17883   0.18305
 Alpha virt. eigenvalues --    0.19224   0.19232   0.19733   0.20379   0.22104
 Alpha virt. eigenvalues --    0.22187   0.22609   0.22733   0.22912   0.23871
 Alpha virt. eigenvalues --    0.25907   0.25931   0.26482   0.27726   0.27761
 Alpha virt. eigenvalues --    0.28335   0.29325   0.29554   0.30606   0.31019
 Alpha virt. eigenvalues --    0.31766   0.33264   0.33749   0.34454   0.34585
 Alpha virt. eigenvalues --    0.36318   0.37740   0.38145   0.39639   0.39684
 Alpha virt. eigenvalues --    0.41534   0.43132   0.44618   0.45222   0.46323
 Alpha virt. eigenvalues --    0.47510   0.47730   0.50366   0.51314   0.51944
 Alpha virt. eigenvalues --    0.52261   0.53556   0.53768   0.55925   0.56020
 Alpha virt. eigenvalues --    0.56864   0.56912   0.57055   0.58137   0.58425
 Alpha virt. eigenvalues --    0.58636   0.59053   0.59317   0.60158   0.61462
 Alpha virt. eigenvalues --    0.61533   0.61938   0.63094   0.63149   0.63222
 Alpha virt. eigenvalues --    0.63374   0.63391   0.63405   0.63993   0.64451
 Alpha virt. eigenvalues --    0.65254   0.65959   0.66400   0.66838   0.67059
 Alpha virt. eigenvalues --    0.67640   0.68232   0.68431   0.69171   0.70913
 Alpha virt. eigenvalues --    0.72243   0.72518   0.74016   0.75895   0.76231
 Alpha virt. eigenvalues --    0.76507   0.77083   0.78301   0.79773   0.80125
 Alpha virt. eigenvalues --    0.81051   0.81975   0.82649   0.83335   0.83819
 Alpha virt. eigenvalues --    0.84191   0.84383   0.85048   0.86741   0.86782
 Alpha virt. eigenvalues --    0.86808   0.87261   0.87563   0.89820   0.90318
 Alpha virt. eigenvalues --    0.90491   0.91506   0.91681   0.92135   0.92828
 Alpha virt. eigenvalues --    0.93386   0.93722   0.95281   0.95595   0.95947
 Alpha virt. eigenvalues --    0.95952   0.97150   0.97888   0.97911   0.98255
 Alpha virt. eigenvalues --    0.98368   1.00097   1.00226   1.01682   1.02103
 Alpha virt. eigenvalues --    1.02857   1.03346   1.03978   1.06344   1.07375
 Alpha virt. eigenvalues --    1.09143   1.09672   1.11053   1.11173   1.13884
 Alpha virt. eigenvalues --    1.14956   1.15782   1.16118   1.16643   1.18445
 Alpha virt. eigenvalues --    1.18465   1.19108   1.20300   1.23695   1.24072
 Alpha virt. eigenvalues --    1.24526   1.25356   1.27026   1.27255   1.27825
 Alpha virt. eigenvalues --    1.29183   1.29459   1.30181   1.32774   1.33337
 Alpha virt. eigenvalues --    1.33800   1.36149   1.36307   1.37297   1.39002
 Alpha virt. eigenvalues --    1.40333   1.41677   1.42716   1.42826   1.42910
 Alpha virt. eigenvalues --    1.44915   1.45171   1.45365   1.46361   1.47734
 Alpha virt. eigenvalues --    1.47959   1.49245   1.49954   1.49969   1.51228
 Alpha virt. eigenvalues --    1.51228   1.51272   1.53290   1.54789   1.57203
 Alpha virt. eigenvalues --    1.57382   1.59458   1.62036   1.65484   1.65783
 Alpha virt. eigenvalues --    1.65898   1.70385   1.72478   1.72783   1.76598
 Alpha virt. eigenvalues --    1.77408   1.78658   1.79838   1.80038   1.82156
 Alpha virt. eigenvalues --    1.82760   1.85688   1.86856   1.86943   1.87476
 Alpha virt. eigenvalues --    1.88382   1.88630   1.89970   1.91133   1.91854
 Alpha virt. eigenvalues --    1.93377   1.95091   1.95182   1.96442   1.97067
 Alpha virt. eigenvalues --    1.98017   1.98409   1.98654   1.98762   1.99106
 Alpha virt. eigenvalues --    1.99627   2.00211   2.01497   2.02484   2.03580
 Alpha virt. eigenvalues --    2.06432   2.06566   2.07416   2.10048   2.10194
 Alpha virt. eigenvalues --    2.12467   2.13033   2.14370   2.15165   2.15298
 Alpha virt. eigenvalues --    2.16249   2.16705   2.16763   2.18994   2.19838
 Alpha virt. eigenvalues --    2.20439   2.21459   2.21523   2.22512   2.23714
 Alpha virt. eigenvalues --    2.24789   2.24889   2.25963   2.26962   2.27625
 Alpha virt. eigenvalues --    2.27966   2.28098   2.28219   2.28423   2.28831
 Alpha virt. eigenvalues --    2.33034   2.34828   2.38755   2.39780   2.40529
 Alpha virt. eigenvalues --    2.40628   2.43995   2.44545   2.46288   2.46724
 Alpha virt. eigenvalues --    2.51549   2.51588   2.52075   2.57308   2.58684
 Alpha virt. eigenvalues --    2.59027   2.59764   2.60113   2.60402   2.62600
 Alpha virt. eigenvalues --    2.63956   2.64922   2.66487   2.67891   2.69529
 Alpha virt. eigenvalues --    2.69566   2.70234   2.72205   2.74128   2.74836
 Alpha virt. eigenvalues --    2.75398   2.75540   2.77556   2.78891   2.79367
 Alpha virt. eigenvalues --    2.80197   2.83390   2.85542   2.88178   2.88427
 Alpha virt. eigenvalues --    2.93433   2.94035   2.97684   2.98466   3.00194
 Alpha virt. eigenvalues --    3.00461   3.06265   3.07014   3.15014   3.19142
 Alpha virt. eigenvalues --    3.19652   3.29115   3.40149   3.46476   3.47043
 Alpha virt. eigenvalues --    3.52305   3.52715   3.61166   5.66730   5.67096
 Alpha virt. eigenvalues --    5.67518   5.68370   5.68818   5.69770   5.71869
 Alpha virt. eigenvalues --   45.82123  45.96824  46.02207  63.11710
  Beta  occ. eigenvalues --  -14.45795 -14.45795 -14.45217 -14.45217 -10.28325
  Beta  occ. eigenvalues --  -10.28325 -10.27637 -10.27636 -10.27465 -10.27465
  Beta  occ. eigenvalues --  -10.27299 -10.27298 -10.25225 -10.25224 -10.24173
  Beta  occ. eigenvalues --  -10.24173 -10.23946 -10.23946 -10.23483 -10.23482
  Beta  occ. eigenvalues --  -10.23429 -10.23429 -10.21513 -10.21510 -10.21178
  Beta  occ. eigenvalues --  -10.19141  -3.83133  -2.34877  -2.34832  -2.31045
  Beta  occ. eigenvalues --   -1.05931  -1.05867  -0.97088  -0.96754  -0.88203
  Beta  occ. eigenvalues --   -0.87946  -0.84997  -0.80347  -0.78802  -0.77911
  Beta  occ. eigenvalues --   -0.77821  -0.75595  -0.75026  -0.72984  -0.71818
  Beta  occ. eigenvalues --   -0.66531  -0.65203  -0.64564  -0.64082  -0.62636
  Beta  occ. eigenvalues --   -0.61416  -0.58898  -0.57257  -0.56649  -0.54096
  Beta  occ. eigenvalues --   -0.53199  -0.52010  -0.49722  -0.49665  -0.49095
  Beta  occ. eigenvalues --   -0.48235  -0.47853  -0.47446  -0.46652  -0.46190
  Beta  occ. eigenvalues --   -0.45763  -0.45341  -0.45023  -0.44588  -0.44054
  Beta  occ. eigenvalues --   -0.42413  -0.41920  -0.41112  -0.38542  -0.38330
  Beta  occ. eigenvalues --   -0.38313  -0.37573  -0.36863  -0.36852  -0.36730
  Beta  occ. eigenvalues --   -0.35122  -0.34562  -0.34454  -0.33879  -0.31608
  Beta  occ. eigenvalues --   -0.28998  -0.26686  -0.25939  -0.24736  -0.24410
  Beta  occ. eigenvalues --   -0.22016  -0.21354  -0.20506  -0.20187  -0.16412
  Beta  occ. eigenvalues --   -0.15331  -0.14870
  Beta virt. eigenvalues --   -0.04509  -0.02509  -0.00701  -0.00028   0.00853
  Beta virt. eigenvalues --    0.01324   0.02029   0.03286   0.05299   0.05920
  Beta virt. eigenvalues --    0.06219   0.07300   0.08960   0.09289   0.10080
  Beta virt. eigenvalues --    0.10450   0.12602   0.13124   0.14183   0.14226
  Beta virt. eigenvalues --    0.15294   0.15637   0.15888   0.16026   0.16513
  Beta virt. eigenvalues --    0.16827   0.17063   0.17663   0.17883   0.18305
  Beta virt. eigenvalues --    0.19224   0.19232   0.19733   0.20379   0.22104
  Beta virt. eigenvalues --    0.22187   0.22609   0.22733   0.22912   0.23871
  Beta virt. eigenvalues --    0.25907   0.25931   0.26482   0.27726   0.27761
  Beta virt. eigenvalues --    0.28335   0.29325   0.29554   0.30606   0.31019
  Beta virt. eigenvalues --    0.31766   0.33264   0.33749   0.34454   0.34585
  Beta virt. eigenvalues --    0.36318   0.37740   0.38145   0.39639   0.39684
  Beta virt. eigenvalues --    0.41534   0.43132   0.44618   0.45222   0.46323
  Beta virt. eigenvalues --    0.47510   0.47730   0.50366   0.51314   0.51944
  Beta virt. eigenvalues --    0.52261   0.53556   0.53768   0.55925   0.56020
  Beta virt. eigenvalues --    0.56864   0.56912   0.57055   0.58137   0.58425
  Beta virt. eigenvalues --    0.58636   0.59053   0.59317   0.60158   0.61462
  Beta virt. eigenvalues --    0.61533   0.61938   0.63094   0.63149   0.63222
  Beta virt. eigenvalues --    0.63374   0.63391   0.63405   0.63993   0.64451
  Beta virt. eigenvalues --    0.65254   0.65959   0.66400   0.66838   0.67059
  Beta virt. eigenvalues --    0.67640   0.68232   0.68431   0.69171   0.70913
  Beta virt. eigenvalues --    0.72243   0.72518   0.74016   0.75895   0.76231
  Beta virt. eigenvalues --    0.76507   0.77083   0.78301   0.79773   0.80125
  Beta virt. eigenvalues --    0.81051   0.81975   0.82649   0.83335   0.83819
  Beta virt. eigenvalues --    0.84191   0.84383   0.85048   0.86741   0.86782
  Beta virt. eigenvalues --    0.86808   0.87261   0.87563   0.89820   0.90318
  Beta virt. eigenvalues --    0.90491   0.91506   0.91681   0.92135   0.92828
  Beta virt. eigenvalues --    0.93386   0.93722   0.95281   0.95595   0.95947
  Beta virt. eigenvalues --    0.95952   0.97150   0.97888   0.97911   0.98255
  Beta virt. eigenvalues --    0.98368   1.00097   1.00226   1.01682   1.02103
  Beta virt. eigenvalues --    1.02857   1.03346   1.03978   1.06344   1.07375
  Beta virt. eigenvalues --    1.09143   1.09672   1.11053   1.11173   1.13884
  Beta virt. eigenvalues --    1.14956   1.15782   1.16118   1.16643   1.18445
  Beta virt. eigenvalues --    1.18465   1.19108   1.20300   1.23695   1.24072
  Beta virt. eigenvalues --    1.24526   1.25356   1.27026   1.27255   1.27825
  Beta virt. eigenvalues --    1.29183   1.29459   1.30181   1.32774   1.33337
  Beta virt. eigenvalues --    1.33800   1.36149   1.36307   1.37297   1.39002
  Beta virt. eigenvalues --    1.40333   1.41677   1.42716   1.42826   1.42910
  Beta virt. eigenvalues --    1.44915   1.45171   1.45365   1.46361   1.47734
  Beta virt. eigenvalues --    1.47959   1.49245   1.49954   1.49969   1.51228
  Beta virt. eigenvalues --    1.51228   1.51272   1.53290   1.54789   1.57203
  Beta virt. eigenvalues --    1.57382   1.59458   1.62036   1.65484   1.65783
  Beta virt. eigenvalues --    1.65898   1.70385   1.72478   1.72783   1.76598
  Beta virt. eigenvalues --    1.77408   1.78658   1.79838   1.80038   1.82156
  Beta virt. eigenvalues --    1.82760   1.85688   1.86856   1.86943   1.87476
  Beta virt. eigenvalues --    1.88382   1.88630   1.89970   1.91133   1.91854
  Beta virt. eigenvalues --    1.93377   1.95091   1.95182   1.96442   1.97067
  Beta virt. eigenvalues --    1.98017   1.98409   1.98654   1.98762   1.99106
  Beta virt. eigenvalues --    1.99627   2.00211   2.01497   2.02484   2.03580
  Beta virt. eigenvalues --    2.06432   2.06566   2.07416   2.10048   2.10194
  Beta virt. eigenvalues --    2.12467   2.13033   2.14370   2.15165   2.15298
  Beta virt. eigenvalues --    2.16249   2.16705   2.16763   2.18994   2.19838
  Beta virt. eigenvalues --    2.20439   2.21459   2.21523   2.22512   2.23714
  Beta virt. eigenvalues --    2.24789   2.24889   2.25963   2.26962   2.27625
  Beta virt. eigenvalues --    2.27966   2.28098   2.28219   2.28423   2.28831
  Beta virt. eigenvalues --    2.33034   2.34828   2.38755   2.39780   2.40529
  Beta virt. eigenvalues --    2.40628   2.43995   2.44545   2.46288   2.46724
  Beta virt. eigenvalues --    2.51549   2.51588   2.52075   2.57308   2.58684
  Beta virt. eigenvalues --    2.59027   2.59764   2.60113   2.60402   2.62600
  Beta virt. eigenvalues --    2.63956   2.64922   2.66487   2.67891   2.69529
  Beta virt. eigenvalues --    2.69566   2.70234   2.72205   2.74128   2.74836
  Beta virt. eigenvalues --    2.75398   2.75540   2.77556   2.78891   2.79367
  Beta virt. eigenvalues --    2.80197   2.83390   2.85542   2.88178   2.88427
  Beta virt. eigenvalues --    2.93433   2.94035   2.97684   2.98466   3.00194
  Beta virt. eigenvalues --    3.00461   3.06265   3.07014   3.15014   3.19142
  Beta virt. eigenvalues --    3.19652   3.29115   3.40149   3.46476   3.47043
  Beta virt. eigenvalues --    3.52305   3.52715   3.61166   5.66730   5.67096
  Beta virt. eigenvalues --    5.67518   5.68371   5.68818   5.69770   5.71869
  Beta virt. eigenvalues --   45.82123  45.96824  46.02207  63.11710
          Condensed to atoms (all electrons):
               1          2          3          4          5          6
     1  C    5.102092   0.523152  -0.061778  -0.058234  -0.061777   0.523136
     2  C    0.523152   4.622362   0.522348  -0.017089  -0.040497  -0.018762
     3  C   -0.061778   0.522348   5.050569   0.535374  -0.032354  -0.040497
     4  C   -0.058234  -0.017089   0.535374   4.909679   0.535383  -0.017090
     5  C   -0.061777  -0.040497  -0.032354   0.535383   5.050545   0.522347
     6  C    0.523136  -0.018762  -0.040497  -0.017090   0.522347   4.622399
     7  H    0.006191  -0.039854   0.340010  -0.040222   0.003976   0.000889
     8  H    0.001503   0.002582  -0.035749   0.365601  -0.035750   0.002582
     9  H    0.006191   0.000889   0.003976  -0.040222   0.340009  -0.039855
    10  C    0.005935  -0.000040   0.000004   0.000120  -0.004885  -0.045390
    11  C    0.003943   0.001959  -0.000041   0.000027   0.003058  -0.061846
    12  C   -0.000654   0.000002  -0.000000   0.000001   0.000114   0.007079
    13  C    0.000139   0.000000  -0.000001   0.000046   0.002015  -0.003414
    14  C    0.000002  -0.000000   0.000000  -0.000000   0.000003  -0.000025
    15  C    0.000002  -0.000000   0.000000  -0.000001   0.000078   0.000059
    16  H   -0.000025   0.000001   0.000001   0.000086   0.000191   0.000768
    17  C    0.000000   0.000000   0.000000   0.000000  -0.000001  -0.000003
    18  H   -0.000000   0.000000   0.000000   0.000000  -0.000000   0.000002
    19  H   -0.000000   0.000000  -0.000000   0.000000   0.000001  -0.000003
    20  H    0.000000  -0.000000   0.000000  -0.000000  -0.000000  -0.000000
    21  C    0.005935  -0.045384  -0.004885   0.000120   0.000004  -0.000040
    22  C    0.003944  -0.061845   0.003058   0.000027  -0.000041   0.001959
    23  C   -0.000654   0.007080   0.000114   0.000001  -0.000000   0.000002
    24  C    0.000139  -0.003415   0.002015   0.000046  -0.000001   0.000000
    25  C    0.000002  -0.000025   0.000003  -0.000000   0.000000  -0.000000
    26  C    0.000002   0.000059   0.000078  -0.000001   0.000000  -0.000000
    27  H   -0.000025   0.000768   0.000191   0.000086   0.000001   0.000001
    28  C    0.000000  -0.000003  -0.000001   0.000000   0.000000   0.000000
    29  H   -0.000000   0.000002  -0.000000   0.000000   0.000000   0.000000
    30  H   -0.000000  -0.000003   0.000001   0.000000  -0.000000   0.000000
    31  H    0.000000  -0.000000  -0.000000  -0.000000   0.000000  -0.000000
    32  N   -0.040260   0.245652  -0.076829   0.004566   0.000092   0.006258
    33  N    0.001731   0.006195  -0.000146   0.000002   0.000000  -0.000037
    34  N   -0.040257   0.006258   0.000092   0.004566  -0.076826   0.245658
    35  N    0.001731  -0.000037   0.000000   0.000002  -0.000146   0.006195
    36  C   -0.000010   0.000000   0.000000  -0.000000   0.000002  -0.000032
    37  H   -0.000001  -0.000000   0.000000   0.000000  -0.000000   0.000004
    38  H   -0.000001  -0.000000   0.000000   0.000000  -0.000000   0.000004
    39  H   -0.000014   0.000001   0.000000  -0.000000   0.000000  -0.000008
    40  C   -0.000010  -0.000032   0.000002  -0.000000   0.000000   0.000000
    41  H   -0.000001   0.000004  -0.000000   0.000000   0.000000  -0.000000
    42  H   -0.000001   0.000004  -0.000000   0.000000   0.000000  -0.000000
    43  H   -0.000014  -0.000008   0.000000  -0.000000   0.000000   0.000001
    44  Co   0.256090  -0.057901   0.006656   0.002139   0.006656  -0.057903
               7          8          9         10         11         12
     1  C    0.006191   0.001503   0.006191   0.005935   0.003943  -0.000654
     2  C   -0.039854   0.002582   0.000889  -0.000040   0.001959   0.000002
     3  C    0.340010  -0.035749   0.003976   0.000004  -0.000041  -0.000000
     4  C   -0.040222   0.365601  -0.040222   0.000120   0.000027   0.000001
     5  C    0.003976  -0.035750   0.340009  -0.004885   0.003058   0.000114
     6  C    0.000889   0.002582  -0.039855  -0.045390  -0.061846   0.007079
     7  H    0.574029  -0.004090  -0.000091  -0.000000  -0.000001   0.000000
     8  H   -0.004090   0.550338  -0.004091  -0.000002   0.000001  -0.000000
     9  H   -0.000091  -0.004091   0.574033   0.000397  -0.000178  -0.000044
    10  C   -0.000000  -0.000002   0.000397   4.639985  -0.066960   0.515622
    11  C   -0.000001   0.000001  -0.000178  -0.066960   4.794300  -0.054015
    12  C    0.000000  -0.000000  -0.000044   0.515622  -0.054015   4.665290
    13  C   -0.000000   0.000002  -0.000382   0.537051   0.004362  -0.056151
    14  C   -0.000000   0.000000  -0.000000  -0.048808   0.004763   0.532181
    15  C   -0.000000   0.000000   0.000119  -0.006303  -0.000054  -0.037841
    16  H    0.000000  -0.000010   0.006493  -0.033071  -0.000151   0.003727
    17  C    0.000000  -0.000000   0.000002  -0.039020  -0.000057  -0.009224
    18  H    0.000000  -0.000000  -0.000000   0.003929  -0.000205  -0.037743
    19  H    0.000000   0.000000  -0.000008   0.001902   0.000003   0.000922
    20  H   -0.000000  -0.000000   0.000000   0.000887   0.000003   0.002327
    21  C    0.000396  -0.000002  -0.000000  -0.000000  -0.000007   0.000000
    22  C   -0.000178   0.000001  -0.000001  -0.000007  -0.012623  -0.000002
    23  C   -0.000044  -0.000000   0.000000   0.000000  -0.000002  -0.000000
    24  C   -0.000382   0.000002  -0.000000   0.000000   0.000000   0.000000
    25  C   -0.000000   0.000000  -0.000000  -0.000000   0.000000   0.000000
    26  C    0.000119   0.000000  -0.000000  -0.000000  -0.000000   0.000000
    27  H    0.006493  -0.000010   0.000000   0.000000   0.000000  -0.000000
    28  C    0.000002  -0.000000   0.000000   0.000000  -0.000000  -0.000000
    29  H   -0.000000  -0.000000   0.000000   0.000000   0.000000  -0.000000
    30  H   -0.000008   0.000000   0.000000   0.000000   0.000000  -0.000000
    31  H    0.000000  -0.000000  -0.000000   0.000000   0.000000   0.000000
    32  N   -0.003538  -0.000097   0.000009   0.000000   0.000270   0.000000
    33  N   -0.000000  -0.000000  -0.000000   0.000000   0.000027   0.000000
    34  N    0.000009  -0.000097  -0.003538   0.256462   0.352083  -0.041095
    35  N   -0.000000  -0.000000  -0.000000  -0.046736   0.303278   0.261905
    36  C   -0.000000   0.000000  -0.000000   0.005494  -0.045122  -0.048513
    37  H    0.000000  -0.000000   0.000000  -0.000134   0.000557  -0.001044
    38  H    0.000000  -0.000000   0.000000  -0.000134   0.000551  -0.001040
    39  H    0.000000   0.000000   0.000000   0.000014   0.000630   0.002651
    40  C   -0.000000   0.000000  -0.000000   0.000000   0.000014   0.000000
    41  H    0.000000  -0.000000   0.000000  -0.000000  -0.000000  -0.000000
    42  H    0.000000  -0.000000   0.000000  -0.000000  -0.000000  -0.000000
    43  H    0.000000   0.000000   0.000000  -0.000000  -0.000002  -0.000000
    44  Co  -0.000591   0.000127  -0.000591   0.007159   0.362472   0.005868
              13         14         15         16         17         18
     1  C    0.000139   0.000002   0.000002  -0.000025   0.000000  -0.000000
     2  C    0.000000  -0.000000  -0.000000   0.000001   0.000000   0.000000
     3  C   -0.000001   0.000000   0.000000   0.000001   0.000000   0.000000
     4  C    0.000046  -0.000000  -0.000001   0.000086   0.000000   0.000000
     5  C    0.002015   0.000003   0.000078   0.000191  -0.000001  -0.000000
     6  C   -0.003414  -0.000025   0.000059   0.000768  -0.000003   0.000002
     7  H   -0.000000  -0.000000  -0.000000   0.000000   0.000000   0.000000
     8  H    0.000002   0.000000   0.000000  -0.000010  -0.000000  -0.000000
     9  H   -0.000382  -0.000000   0.000119   0.006493   0.000002  -0.000000
    10  C    0.537051  -0.048808  -0.006303  -0.033071  -0.039020   0.003929
    11  C    0.004362   0.004763  -0.000054  -0.000151  -0.000057  -0.000205
    12  C   -0.056151   0.532181  -0.037841   0.003727  -0.009224  -0.037743
    13  C    5.022579  -0.044634   0.510383   0.355525  -0.036284   0.000274
    14  C   -0.044634   5.026116  -0.037158   0.000434   0.518941   0.362330
    15  C    0.510383  -0.037158   4.897564  -0.035512   0.555028   0.003832
    16  H    0.355525   0.000434  -0.035512   0.509762   0.003646   0.000013
    17  C   -0.036284   0.518941   0.555028   0.003646   4.888369  -0.035161
    18  H    0.000274   0.362330   0.003832   0.000013  -0.035161   0.532378
    19  H   -0.035392   0.003922   0.368962  -0.003867  -0.035847  -0.000143
    20  H    0.003993  -0.036846  -0.036329  -0.000145   0.368279  -0.004176
    21  C    0.000000  -0.000000  -0.000000   0.000000   0.000000   0.000000
    22  C    0.000000   0.000000  -0.000000   0.000000  -0.000000   0.000000
    23  C    0.000000   0.000000   0.000000  -0.000000  -0.000000  -0.000000
    24  C    0.000000  -0.000000   0.000000   0.000000   0.000000   0.000000
    25  C   -0.000000  -0.000000   0.000000  -0.000000  -0.000000   0.000000
    26  C    0.000000   0.000000  -0.000000  -0.000000  -0.000000   0.000000
    27  H    0.000000  -0.000000  -0.000000   0.000000   0.000000  -0.000000
    28  C    0.000000  -0.000000  -0.000000   0.000000   0.000000   0.000000
    29  H    0.000000   0.000000   0.000000  -0.000000   0.000000  -0.000000
    30  H   -0.000000  -0.000000   0.000000  -0.000000   0.000000   0.000000
    31  H   -0.000000   0.000000   0.000000  -0.000000   0.000000   0.000000
    32  N   -0.000000   0.000000   0.000000   0.000000   0.000000  -0.000000
    33  N    0.000000  -0.000000   0.000000   0.000000   0.000000  -0.000000
    34  N   -0.076482   0.009305   0.005091  -0.005005  -0.000201  -0.000095
    35  N    0.009597  -0.081490  -0.000185  -0.000096   0.005357  -0.007232
    36  C   -0.000118  -0.002727   0.000009   0.000003  -0.000108   0.004232
    37  H   -0.000009   0.002517  -0.000001  -0.000000  -0.000004   0.000512
    38  H   -0.000009   0.002515  -0.000001  -0.000000  -0.000004   0.000511
    39  H    0.000005   0.000011  -0.000000  -0.000000   0.000001  -0.000032
    40  C    0.000000   0.000000  -0.000000   0.000000   0.000000  -0.000000
    41  H   -0.000000  -0.000000   0.000000  -0.000000   0.000000  -0.000000
    42  H   -0.000000  -0.000000   0.000000  -0.000000   0.000000  -0.000000
    43  H    0.000000   0.000000  -0.000000   0.000000  -0.000000   0.000000
    44  Co  -0.001282  -0.001364   0.000170   0.000044   0.000150   0.000024
              19         20         21         22         23         24
     1  C   -0.000000   0.000000   0.005935   0.003944  -0.000654   0.000139
     2  C    0.000000  -0.000000  -0.045384  -0.061845   0.007080  -0.003415
     3  C   -0.000000   0.000000  -0.004885   0.003058   0.000114   0.002015
     4  C    0.000000  -0.000000   0.000120   0.000027   0.000001   0.000046
     5  C    0.000001  -0.000000   0.000004  -0.000041  -0.000000  -0.000001
     6  C   -0.000003  -0.000000  -0.000040   0.001959   0.000002   0.000000
     7  H    0.000000  -0.000000   0.000396  -0.000178  -0.000044  -0.000382
     8  H    0.000000  -0.000000  -0.000002   0.000001  -0.000000   0.000002
     9  H   -0.000008   0.000000  -0.000000  -0.000001   0.000000  -0.000000
    10  C    0.001902   0.000887  -0.000000  -0.000007   0.000000   0.000000
    11  C    0.000003   0.000003  -0.000007  -0.012623  -0.000002   0.000000
    12  C    0.000922   0.002327   0.000000  -0.000002  -0.000000   0.000000
    13  C   -0.035392   0.003993   0.000000   0.000000   0.000000   0.000000
    14  C    0.003922  -0.036846  -0.000000   0.000000   0.000000  -0.000000
    15  C    0.368962  -0.036329  -0.000000  -0.000000   0.000000   0.000000
    16  H   -0.003867  -0.000145   0.000000   0.000000  -0.000000   0.000000
    17  C   -0.035847   0.368279   0.000000  -0.000000  -0.000000   0.000000
    18  H   -0.000143  -0.004176   0.000000   0.000000  -0.000000   0.000000
    19  H    0.530041  -0.004571   0.000000   0.000000  -0.000000  -0.000000
    20  H   -0.004571   0.535615   0.000000   0.000000   0.000000  -0.000000
    21  C    0.000000   0.000000   4.639896  -0.066953   0.515624   0.537064
    22  C    0.000000   0.000000  -0.066953   4.794304  -0.054022   0.004363
    23  C   -0.000000   0.000000   0.515624  -0.054022   4.665367  -0.056159
    24  C   -0.000000  -0.000000   0.537064   0.004363  -0.056159   5.022638
    25  C   -0.000000   0.000000  -0.048801   0.004762   0.532165  -0.044635
    26  C    0.000000   0.000000  -0.006298  -0.000054  -0.037841   0.510363
    27  H   -0.000000  -0.000000  -0.033067  -0.000151   0.003727   0.355519
    28  C    0.000000   0.000000  -0.039020  -0.000057  -0.009229  -0.036283
    29  H    0.000000   0.000000   0.003930  -0.000205  -0.037744   0.000274
    30  H    0.000000   0.000000   0.001902   0.000003   0.000922  -0.035389
    31  H    0.000000   0.000000   0.000887   0.000003   0.002328   0.003994
    32  N    0.000000   0.000000   0.256448   0.352091  -0.041090  -0.076494
    33  N   -0.000000  -0.000000  -0.046740   0.303268   0.261912   0.009598
    34  N   -0.000090   0.000003   0.000000   0.000270   0.000000  -0.000000
    35  N    0.000004  -0.000099   0.000000   0.000027   0.000000   0.000000
    36  C   -0.000000  -0.000002   0.000000   0.000014   0.000000   0.000000
    37  H   -0.000000  -0.000000  -0.000000  -0.000000  -0.000000  -0.000000
    38  H   -0.000000  -0.000000  -0.000000  -0.000000  -0.000000  -0.000000
    39  H   -0.000000  -0.000000  -0.000000  -0.000002  -0.000000   0.000000
    40  C    0.000000  -0.000000   0.005494  -0.045121  -0.048514  -0.000118
    41  H   -0.000000   0.000000  -0.000134   0.000551  -0.001039  -0.000009
    42  H   -0.000000   0.000000  -0.000134   0.000557  -0.001044  -0.000009
    43  H   -0.000000   0.000000   0.000014   0.000629   0.002651   0.000005
    44  Co   0.000013  -0.000010   0.007158   0.362472   0.005868  -0.001282
              25         26         27         28         29         30
     1  C    0.000002   0.000002  -0.000025   0.000000  -0.000000  -0.000000
     2  C   -0.000025   0.000059   0.000768  -0.000003   0.000002  -0.000003
     3  C    0.000003   0.000078   0.000191  -0.000001  -0.000000   0.000001
     4  C   -0.000000  -0.000001   0.000086   0.000000   0.000000   0.000000
     5  C    0.000000   0.000000   0.000001   0.000000   0.000000  -0.000000
     6  C   -0.000000  -0.000000   0.000001   0.000000   0.000000   0.000000
     7  H   -0.000000   0.000119   0.006493   0.000002  -0.000000  -0.000008
     8  H    0.000000   0.000000  -0.000010  -0.000000  -0.000000   0.000000
     9  H   -0.000000  -0.000000   0.000000   0.000000   0.000000   0.000000
    10  C   -0.000000  -0.000000   0.000000   0.000000   0.000000   0.000000
    11  C    0.000000  -0.000000   0.000000  -0.000000   0.000000   0.000000
    12  C    0.000000   0.000000  -0.000000  -0.000000  -0.000000  -0.000000
    13  C   -0.000000   0.000000   0.000000   0.000000   0.000000  -0.000000
    14  C   -0.000000   0.000000  -0.000000  -0.000000   0.000000  -0.000000
    15  C    0.000000  -0.000000  -0.000000  -0.000000   0.000000   0.000000
    16  H   -0.000000  -0.000000   0.000000   0.000000  -0.000000  -0.000000
    17  C   -0.000000  -0.000000   0.000000   0.000000   0.000000   0.000000
    18  H    0.000000   0.000000  -0.000000   0.000000  -0.000000   0.000000
    19  H   -0.000000   0.000000  -0.000000   0.000000   0.000000   0.000000
    20  H    0.000000   0.000000  -0.000000   0.000000   0.000000   0.000000
    21  C   -0.048801  -0.006298  -0.033067  -0.039020   0.003930   0.001902
    22  C    0.004762  -0.000054  -0.000151  -0.000057  -0.000205   0.000003
    23  C    0.532165  -0.037841   0.003727  -0.009229  -0.037744   0.000922
    24  C   -0.044635   0.510363   0.355519  -0.036283   0.000274  -0.035389
    25  C    5.026065  -0.037159   0.000434   0.518963   0.362334   0.003922
    26  C   -0.037159   4.897579  -0.035511   0.555029   0.003832   0.368965
    27  H    0.000434  -0.035511   0.509761   0.003646   0.000013  -0.003867
    28  C    0.518963   0.555029   0.003646   4.888350  -0.035162  -0.035846
    29  H    0.362334   0.003832   0.000013  -0.035162   0.532379  -0.000143
    30  H    0.003922   0.368965  -0.003867  -0.035846  -0.000143   0.530032
    31  H   -0.036849  -0.036330  -0.000145   0.368275  -0.004177  -0.004571
    32  N    0.009304   0.005091  -0.005005  -0.000201  -0.000095  -0.000090
    33  N   -0.081479  -0.000185  -0.000096   0.005357  -0.007231   0.000004
    34  N    0.000000   0.000000   0.000000   0.000000  -0.000000   0.000000
    35  N   -0.000000   0.000000   0.000000   0.000000  -0.000000  -0.000000
    36  C    0.000000  -0.000000   0.000000   0.000000  -0.000000   0.000000
    37  H   -0.000000   0.000000  -0.000000   0.000000  -0.000000  -0.000000
    38  H   -0.000000   0.000000  -0.000000   0.000000  -0.000000  -0.000000
    39  H    0.000000  -0.000000   0.000000  -0.000000   0.000000  -0.000000
    40  C   -0.002728   0.000009   0.000003  -0.000108   0.004231  -0.000000
    41  H    0.002515  -0.000001  -0.000000  -0.000004   0.000511  -0.000000
    42  H    0.002517  -0.000001  -0.000000  -0.000004   0.000512  -0.000000
    43  H    0.000012  -0.000000  -0.000000   0.000001  -0.000032  -0.000000
    44  Co  -0.001363   0.000170   0.000044   0.000150   0.000024   0.000013
              31         32         33         34         35         36
     1  C    0.000000  -0.040260   0.001731  -0.040257   0.001731  -0.000010
     2  C   -0.000000   0.245652   0.006195   0.006258  -0.000037   0.000000
     3  C   -0.000000  -0.076829  -0.000146   0.000092   0.000000   0.000000
     4  C   -0.000000   0.004566   0.000002   0.004566   0.000002  -0.000000
     5  C    0.000000   0.000092   0.000000  -0.076826  -0.000146   0.000002
     6  C   -0.000000   0.006258  -0.000037   0.245658   0.006195  -0.000032
     7  H    0.000000  -0.003538  -0.000000   0.000009  -0.000000  -0.000000
     8  H   -0.000000  -0.000097  -0.000000  -0.000097  -0.000000   0.000000
     9  H   -0.000000   0.000009  -0.000000  -0.003538  -0.000000  -0.000000
    10  C    0.000000   0.000000   0.000000   0.256462  -0.046736   0.005494
    11  C    0.000000   0.000270   0.000027   0.352083   0.303278  -0.045122
    12  C    0.000000   0.000000   0.000000  -0.041095   0.261905  -0.048513
    13  C   -0.000000  -0.000000   0.000000  -0.076482   0.009597  -0.000118
    14  C    0.000000   0.000000  -0.000000   0.009305  -0.081490  -0.002727
    15  C    0.000000   0.000000   0.000000   0.005091  -0.000185   0.000009
    16  H   -0.000000   0.000000   0.000000  -0.005005  -0.000096   0.000003
    17  C    0.000000   0.000000   0.000000  -0.000201   0.005357  -0.000108
    18  H    0.000000  -0.000000  -0.000000  -0.000095  -0.007232   0.004232
    19  H    0.000000   0.000000  -0.000000  -0.000090   0.000004  -0.000000
    20  H    0.000000   0.000000  -0.000000   0.000003  -0.000099  -0.000002
    21  C    0.000887   0.256448  -0.046740   0.000000   0.000000   0.000000
    22  C    0.000003   0.352091   0.303268   0.000270   0.000027   0.000014
    23  C    0.002328  -0.041090   0.261912   0.000000   0.000000   0.000000
    24  C    0.003994  -0.076494   0.009598  -0.000000   0.000000   0.000000
    25  C   -0.036849   0.009304  -0.081479   0.000000  -0.000000   0.000000
    26  C   -0.036330   0.005091  -0.000185   0.000000   0.000000  -0.000000
    27  H   -0.000145  -0.005005  -0.000096   0.000000   0.000000   0.000000
    28  C    0.368275  -0.000201   0.005357   0.000000   0.000000   0.000000
    29  H   -0.004177  -0.000095  -0.007231  -0.000000  -0.000000  -0.000000
    30  H   -0.004571  -0.000090   0.000004   0.000000  -0.000000   0.000000
    31  H    0.535627   0.000003  -0.000099   0.000000  -0.000000  -0.000000
    32  N    0.000003   7.217626  -0.060746  -0.000066   0.000000   0.000000
    33  N   -0.000099  -0.060746   7.061332   0.000000  -0.000000  -0.000000
    34  N    0.000000  -0.000066   0.000000   7.217567  -0.060745   0.004635
    35  N   -0.000000   0.000000  -0.000000  -0.060745   7.061358   0.300386
    36  C   -0.000000   0.000000  -0.000000   0.004635   0.300386   5.060754
    37  H    0.000000   0.000000   0.000000  -0.000066  -0.041485   0.377165
    38  H    0.000000   0.000000   0.000000  -0.000066  -0.041488   0.377172
    39  H    0.000000  -0.000000   0.000001   0.000162  -0.032316   0.376130
    40  C   -0.000002   0.004635   0.300390   0.000000  -0.000000   0.000000
    41  H   -0.000000  -0.000066  -0.041489   0.000000   0.000000  -0.000000
    42  H   -0.000000  -0.000066  -0.041486   0.000000   0.000000  -0.000000
    43  H   -0.000000   0.000162  -0.032316  -0.000000   0.000001  -0.000000
    44  Co  -0.000010  -0.072744  -0.055030  -0.072742  -0.055030  -0.007458
              37         38         39         40         41         42
     1  C   -0.000001  -0.000001  -0.000014  -0.000010  -0.000001  -0.000001
     2  C   -0.000000  -0.000000   0.000001  -0.000032   0.000004   0.000004
     3  C    0.000000   0.000000   0.000000   0.000002  -0.000000  -0.000000
     4  C    0.000000   0.000000  -0.000000  -0.000000   0.000000   0.000000
     5  C   -0.000000  -0.000000   0.000000   0.000000   0.000000   0.000000
     6  C    0.000004   0.000004  -0.000008   0.000000  -0.000000  -0.000000
     7  H    0.000000   0.000000   0.000000  -0.000000   0.000000   0.000000
     8  H   -0.000000  -0.000000   0.000000   0.000000  -0.000000  -0.000000
     9  H    0.000000   0.000000   0.000000  -0.000000   0.000000   0.000000
    10  C   -0.000134  -0.000134   0.000014   0.000000  -0.000000  -0.000000
    11  C    0.000557   0.000551   0.000630   0.000014  -0.000000  -0.000000
    12  C   -0.001044  -0.001040   0.002651   0.000000  -0.000000  -0.000000
    13  C   -0.000009  -0.000009   0.000005   0.000000  -0.000000  -0.000000
    14  C    0.002517   0.002515   0.000011   0.000000  -0.000000  -0.000000
    15  C   -0.000001  -0.000001  -0.000000  -0.000000   0.000000   0.000000
    16  H   -0.000000  -0.000000  -0.000000   0.000000  -0.000000  -0.000000
    17  C   -0.000004  -0.000004   0.000001   0.000000   0.000000   0.000000
    18  H    0.000512   0.000511  -0.000032  -0.000000  -0.000000  -0.000000
    19  H   -0.000000  -0.000000  -0.000000   0.000000  -0.000000  -0.000000
    20  H   -0.000000  -0.000000  -0.000000  -0.000000   0.000000   0.000000
    21  C   -0.000000  -0.000000  -0.000000   0.005494  -0.000134  -0.000134
    22  C   -0.000000  -0.000000  -0.000002  -0.045121   0.000551   0.000557
    23  C   -0.000000  -0.000000  -0.000000  -0.048514  -0.001039  -0.001044
    24  C   -0.000000  -0.000000   0.000000  -0.000118  -0.000009  -0.000009
    25  C   -0.000000  -0.000000   0.000000  -0.002728   0.002515   0.002517
    26  C    0.000000   0.000000  -0.000000   0.000009  -0.000001  -0.000001
    27  H   -0.000000  -0.000000   0.000000   0.000003  -0.000000  -0.000000
    28  C    0.000000   0.000000  -0.000000  -0.000108  -0.000004  -0.000004
    29  H   -0.000000  -0.000000   0.000000   0.004231   0.000511   0.000512
    30  H   -0.000000  -0.000000  -0.000000  -0.000000  -0.000000  -0.000000
    31  H    0.000000   0.000000   0.000000  -0.000002  -0.000000  -0.000000
    32  N    0.000000   0.000000  -0.000000   0.004635  -0.000066  -0.000066
    33  N    0.000000   0.000000   0.000001   0.300390  -0.041489  -0.041486
    34  N   -0.000066  -0.000066   0.000162   0.000000   0.000000   0.000000
    35  N   -0.041485  -0.041488  -0.032316  -0.000000   0.000000   0.000000
    36  C    0.377165   0.377172   0.376130   0.000000  -0.000000  -0.000000
    37  H    0.524253  -0.040022  -0.025006  -0.000000   0.000000  -0.000000
    38  H   -0.040022   0.524249  -0.025013  -0.000000  -0.000000   0.000000
    39  H   -0.025006  -0.025013   0.468435  -0.000000   0.000000   0.000000
    40  C   -0.000000  -0.000000  -0.000000   5.060755   0.377172   0.377164
    41  H    0.000000  -0.000000   0.000000   0.377172   0.524253  -0.040023
    42  H   -0.000000   0.000000   0.000000   0.377164  -0.040023   0.524257
    43  H    0.000000   0.000000  -0.000024   0.376130  -0.025014  -0.025006
    44  Co   0.000669   0.000671   0.008573  -0.007458   0.000672   0.000668
              43         44
     1  C   -0.000014   0.256090
     2  C   -0.000008  -0.057901
     3  C    0.000000   0.006656
     4  C   -0.000000   0.002139
     5  C    0.000000   0.006656
     6  C    0.000001  -0.057903
     7  H    0.000000  -0.000591
     8  H    0.000000   0.000127
     9  H    0.000000  -0.000591
    10  C   -0.000000   0.007159
    11  C   -0.000002   0.362472
    12  C   -0.000000   0.005868
    13  C    0.000000  -0.001282
    14  C    0.000000  -0.001364
    15  C   -0.000000   0.000170
    16  H    0.000000   0.000044
    17  C   -0.000000   0.000150
    18  H    0.000000   0.000024
    19  H   -0.000000   0.000013
    20  H    0.000000  -0.000010
    21  C    0.000014   0.007158
    22  C    0.000629   0.362472
    23  C    0.002651   0.005868
    24  C    0.000005  -0.001282
    25  C    0.000012  -0.001363
    26  C   -0.000000   0.000170
    27  H   -0.000000   0.000044
    28  C    0.000001   0.000150
    29  H   -0.000032   0.000024
    30  H   -0.000000   0.000013
    31  H   -0.000000  -0.000010
    32  N    0.000162  -0.072744
    33  N   -0.032316  -0.055030
    34  N   -0.000000  -0.072742
    35  N    0.000001  -0.055030
    36  C   -0.000000  -0.007458
    37  H    0.000000   0.000669
    38  H    0.000000   0.000671
    39  H   -0.000024   0.008573
    40  C    0.376130  -0.007458
    41  H   -0.025014   0.000672
    42  H   -0.025006   0.000668
    43  H    0.468433   0.008573
    44  Co   0.008573  16.486572
          Atomic-Atomic Spin Densities.
               1          2          3          4          5          6
     1  C   -0.000001   0.000000   0.000000   0.000000   0.000000   0.000000
     2  C    0.000000   0.000000  -0.000000  -0.000000  -0.000000   0.000000
     3  C    0.000000  -0.000000  -0.000000   0.000000   0.000000  -0.000000
     4  C    0.000000  -0.000000   0.000000  -0.000000   0.000000  -0.000000
     5  C    0.000000  -0.000000   0.000000   0.000000  -0.000000  -0.000000
     6  C    0.000000   0.000000  -0.000000  -0.000000  -0.000000   0.000000
     7  H   -0.000000   0.000000   0.000000   0.000000  -0.000000   0.000000
     8  H    0.000000   0.000000  -0.000000  -0.000000  -0.000000   0.000000
     9  H   -0.000000   0.000000  -0.000000   0.000000   0.000000   0.000000
    10  C   -0.000000   0.000000   0.000000  -0.000000  -0.000000  -0.000000
    11  C    0.000000  -0.000000   0.000000  -0.000000   0.000000   0.000000
    12  C    0.000000   0.000000  -0.000000  -0.000000  -0.000000  -0.000000
    13  C   -0.000000  -0.000000   0.000000  -0.000000  -0.000000  -0.000000
    14  C   -0.000000  -0.000000   0.000000  -0.000000  -0.000000  -0.000000
    15  C   -0.000000  -0.000000   0.000000  -0.000000   0.000000   0.000000
    16  H   -0.000000   0.000000  -0.000000   0.000000  -0.000000   0.000000
    17  C    0.000000   0.000000  -0.000000  -0.000000  -0.000000  -0.000000
    18  H    0.000000  -0.000000  -0.000000   0.000000   0.000000   0.000000
    19  H    0.000000   0.000000  -0.000000   0.000000  -0.000000  -0.000000
    20  H   -0.000000   0.000000   0.000000  -0.000000  -0.000000  -0.000000
    21  C   -0.000000  -0.000000  -0.000000  -0.000000   0.000000   0.000000
    22  C    0.000000   0.000000   0.000000  -0.000000   0.000000  -0.000000
    23  C    0.000000  -0.000000  -0.000000  -0.000000  -0.000000   0.000000
    24  C   -0.000000  -0.000000  -0.000000  -0.000000   0.000000  -0.000000
    25  C   -0.000000  -0.000000  -0.000000  -0.000000   0.000000  -0.000000
    26  C   -0.000000   0.000000   0.000000  -0.000000   0.000000  -0.000000
    27  H   -0.000000   0.000000  -0.000000   0.000000  -0.000000   0.000000
    28  C    0.000000  -0.000000  -0.000000  -0.000000  -0.000000   0.000000
    29  H    0.000000   0.000000   0.000000   0.000000  -0.000000  -0.000000
    30  H    0.000000  -0.000000  -0.000000   0.000000  -0.000000   0.000000
    31  H   -0.000000  -0.000000  -0.000000  -0.000000   0.000000   0.000000
    32  N   -0.000000  -0.000000   0.000000   0.000000  -0.000000   0.000000
    33  N   -0.000000  -0.000000  -0.000000  -0.000000   0.000000  -0.000000
    34  N   -0.000000   0.000000  -0.000000   0.000000   0.000000  -0.000000
    35  N   -0.000000  -0.000000   0.000000  -0.000000  -0.000000  -0.000000
    36  C   -0.000000   0.000000   0.000000  -0.000000   0.000000   0.000000
    37  H   -0.000000   0.000000  -0.000000  -0.000000  -0.000000  -0.000000
    38  H    0.000000  -0.000000   0.000000   0.000000   0.000000   0.000000
    39  H    0.000000   0.000000  -0.000000   0.000000   0.000000  -0.000000
    40  C   -0.000000   0.000000   0.000000  -0.000000   0.000000   0.000000
    41  H    0.000000   0.000000   0.000000   0.000000   0.000000  -0.000000
    42  H   -0.000000  -0.000000  -0.000000  -0.000000  -0.000000   0.000000
    43  H    0.000000  -0.000000   0.000000   0.000000  -0.000000   0.000000
    44  Co   0.000000  -0.000000   0.000000   0.000000   0.000000  -0.000000
               7          8          9         10         11         12
     1  C   -0.000000   0.000000  -0.000000  -0.000000   0.000000   0.000000
     2  C    0.000000   0.000000   0.000000   0.000000  -0.000000   0.000000
     3  C    0.000000  -0.000000  -0.000000   0.000000   0.000000  -0.000000
     4  C    0.000000  -0.000000   0.000000  -0.000000  -0.000000  -0.000000
     5  C   -0.000000  -0.000000   0.000000  -0.000000   0.000000  -0.000000
     6  C    0.000000   0.000000   0.000000  -0.000000   0.000000  -0.000000
     7  H   -0.000000   0.000000  -0.000000   0.000000  -0.000000   0.000000
     8  H    0.000000   0.000000   0.000000   0.000000  -0.000000   0.000000
     9  H   -0.000000   0.000000  -0.000000   0.000000  -0.000000   0.000000
    10  C    0.000000   0.000000   0.000000   0.000000  -0.000000   0.000000
    11  C   -0.000000  -0.000000  -0.000000  -0.000000  -0.000000  -0.000000
    12  C    0.000000   0.000000   0.000000   0.000000  -0.000000   0.000000
    13  C    0.000000  -0.000000   0.000000  -0.000000  -0.000000   0.000000
    14  C    0.000000   0.000000   0.000000   0.000000   0.000000   0.000000
    15  C   -0.000000  -0.000000   0.000000   0.000000   0.000000  -0.000000
    16  H    0.000000   0.000000   0.000000   0.000000  -0.000000   0.000000
    17  C    0.000000   0.000000   0.000000  -0.000000  -0.000000   0.000000
    18  H   -0.000000  -0.000000  -0.000000  -0.000000  -0.000000  -0.000000
    19  H    0.000000   0.000000   0.000000  -0.000000  -0.000000   0.000000
    20  H    0.000000   0.000000   0.000000   0.000000   0.000000  -0.000000
    21  C    0.000000   0.000000   0.000000   0.000000  -0.000000   0.000000
    22  C   -0.000000  -0.000000  -0.000000  -0.000000  -0.000000  -0.000000
    23  C    0.000000   0.000000   0.000000   0.000000  -0.000000  -0.000000
    24  C    0.000000  -0.000000   0.000000  -0.000000   0.000000   0.000000
    25  C    0.000000   0.000000   0.000000  -0.000000   0.000000   0.000000
    26  C    0.000000  -0.000000  -0.000000  -0.000000  -0.000000   0.000000
    27  H    0.000000   0.000000   0.000000   0.000000  -0.000000   0.000000
    28  C    0.000000   0.000000   0.000000   0.000000  -0.000000   0.000000
    29  H   -0.000000  -0.000000  -0.000000   0.000000  -0.000000  -0.000000
    30  H    0.000000   0.000000   0.000000   0.000000   0.000000  -0.000000
    31  H    0.000000   0.000000   0.000000  -0.000000   0.000000   0.000000
    32  N   -0.000000   0.000000  -0.000000   0.000000  -0.000000  -0.000000
    33  N    0.000000   0.000000   0.000000  -0.000000   0.000000   0.000000
    34  N   -0.000000   0.000000  -0.000000   0.000000   0.000000  -0.000000
    35  N    0.000000   0.000000   0.000000  -0.000000   0.000000   0.000000
    36  C    0.000000  -0.000000  -0.000000  -0.000000   0.000000  -0.000000
    37  H    0.000000   0.000000   0.000000   0.000000   0.000000   0.000000
    38  H   -0.000000  -0.000000  -0.000000  -0.000000  -0.000000  -0.000000
    39  H   -0.000000   0.000000  -0.000000   0.000000  -0.000000  -0.000000
    40  C   -0.000000  -0.000000   0.000000  -0.000000   0.000000   0.000000
    41  H   -0.000000  -0.000000  -0.000000   0.000000  -0.000000  -0.000000
    42  H    0.000000   0.000000   0.000000  -0.000000   0.000000   0.000000
    43  H   -0.000000   0.000000  -0.000000   0.000000  -0.000000  -0.000000
    44  Co  -0.000000  -0.000000  -0.000000  -0.000000  -0.000000  -0.000000
              13         14         15         16         17         18
     1  C   -0.000000  -0.000000  -0.000000  -0.000000   0.000000   0.000000
     2  C   -0.000000  -0.000000  -0.000000   0.000000   0.000000  -0.000000
     3  C    0.000000   0.000000   0.000000  -0.000000  -0.000000  -0.000000
     4  C   -0.000000  -0.000000  -0.000000   0.000000  -0.000000   0.000000
     5  C   -0.000000  -0.000000   0.000000  -0.000000  -0.000000   0.000000
     6  C   -0.000000  -0.000000   0.000000   0.000000  -0.000000   0.000000
     7  H    0.000000   0.000000  -0.000000   0.000000   0.000000  -0.000000
     8  H   -0.000000   0.000000  -0.000000   0.000000   0.000000  -0.000000
     9  H    0.000000   0.000000   0.000000   0.000000   0.000000  -0.000000
    10  C   -0.000000   0.000000   0.000000   0.000000  -0.000000  -0.000000
    11  C   -0.000000   0.000000   0.000000  -0.000000  -0.000000  -0.000000
    12  C    0.000000   0.000000  -0.000000   0.000000   0.000000  -0.000000
    13  C   -0.000000  -0.000000   0.000000   0.000000   0.000000   0.000000
    14  C   -0.000000  -0.000000   0.000000   0.000000   0.000000   0.000000
    15  C    0.000000   0.000000  -0.000000  -0.000000  -0.000000  -0.000000
[...]
    40 C(13)  Bbb     0.0000     0.000     0.000     0.000  0.3687  0.9278 -0.0577
              Bcc     0.0000     0.000     0.000     0.000  0.4255 -0.1132  0.8979
 
              Baa    -0.0000    -0.000    -0.000    -0.000 -0.1294 -0.4821  0.8665
    41 H(1)   Bbb    -0.0000    -0.000    -0.000    -0.000 -0.4419  0.8103  0.3849
              Bcc     0.0000     0.000     0.000     0.000  0.8877  0.3331  0.3179
 
              Baa    -0.0000    -0.000    -0.000    -0.000  0.9869  0.1134 -0.1149
    42 H(1)   Bbb     0.0000     0.000     0.000     0.000 -0.1559  0.8545 -0.4955
              Bcc     0.0000     0.000     0.000     0.000  0.0420  0.5070  0.8609
 
              Baa    -0.0000    -0.000    -0.000    -0.000  0.7387  0.0572 -0.6716
    43 H(1)   Bbb    -0.0000    -0.000    -0.000    -0.000 -0.4013  0.8378 -0.3701
              Bcc     0.0000     0.000     0.000     0.000  0.5416  0.5429  0.6418
 
              Baa    -0.0000    -0.002    -0.001    -0.001  0.9987 -0.0320 -0.0401
    44 Co(59) Bbb    -0.0000    -0.002    -0.001    -0.001  0.0511  0.6763  0.7349
              Bcc     0.0000     0.004     0.002     0.001 -0.0036  0.7359 -0.6770
 

 ---------------------------------------------------------------------------------

   1 Symmetry operations used in ECPInt.
 ECPInt:  NShTT=   11781 NPrTT=   71406 LenC2=    9520 LenP2D=   32024.
 LDataN:  DoStor=T MaxTD1= 7 Len=  274
 Calling FoFJK, ICntrl=      2127 FMM=F ISym2X=0 I1Cent= 0 IOpClX= 1 NMat=1 NMatS=1 NMatT=0.
 -------------------------------------------------------------------
 Center     Atomic                   Forces (Hartrees/Bohr)
 Number     Number              X              Y              Z
 -------------------------------------------------------------------
      1        6           0.000026638   -0.089259661   -0.000011583
      2        6           0.070993628    0.037615758    0.000007582
      3        6          -0.007694954    0.007814305    0.000000151
      4        6          -0.000013505    0.000169908   -0.000001622
      5        6           0.007715247    0.007798195    0.000000149
      6        6          -0.071035675    0.037634506    0.000006364
      7        1           0.001053758    0.004517350   -0.000001121
      8        1           0.000000495    0.000497344   -0.000000062
      9        1          -0.001056956    0.004517181   -0.000001227
     10        6          -0.013549810   -0.007822555    0.000000976
     11        6           0.000413573    0.005122236   -0.000020272
     12        6           0.017621975    0.005241482   -0.000000991
     13        6           0.014902565    0.004618558   -0.000001605
     14        6          -0.001738566    0.006070891   -0.000000270
     15        6          -0.014749306    0.008322794    0.000001148
     16        1           0.000251322   -0.000160292   -0.000000330
     17        6           0.002569921   -0.012871224   -0.000000304
     18        1           0.001219077    0.000112509    0.000000077
     19        1           0.000247034   -0.000377842   -0.000000094
     20        1          -0.000710595    0.000326644    0.000000224
     21        6           0.013622025   -0.007892139   -0.000000159
     22        6          -0.000422983    0.005121830   -0.000022816
     23        6          -0.017729063    0.005234320   -0.000001036
     24        6          -0.014963890    0.004689830   -0.000001044
     25        6           0.001829299    0.006080453   -0.000000950
     26        6           0.014783907    0.008314693    0.000000414
     27        1          -0.000253709   -0.000177886   -0.000000162
     28        6          -0.002609343   -0.012860540    0.000000151
     29        1          -0.001227891    0.000100159   -0.000000125
     30        1          -0.000251691   -0.000371882   -0.000000122
     31        1           0.000722501    0.000328885    0.000000193
     32        7          -0.023199341   -0.060473769    0.000008122
     33        7           0.028095013    0.023241048    0.000011936
     34        7           0.023207488   -0.060500444    0.000005001
     35        7          -0.028061726    0.023231012    0.000010082
     36        6           0.000261030   -0.011627744   -0.000000932
     37        1           0.000675359    0.001588727    0.000893298
     38        1           0.000675109    0.001589384   -0.000894226
     39        1           0.000677574    0.002426772    0.000001483
     40        6          -0.000272183   -0.011636770   -0.000000935
     41        1          -0.000673312    0.001590319   -0.000896701
     42        1          -0.000673881    0.001589026    0.000895370
     43        1          -0.000675123    0.002427820    0.000001666
     44       27          -0.000001035    0.058098810    0.000014302
 -------------------------------------------------------------------
 Cartesian Forces:  Max     0.089259661 RMS     0.017103090

 GradGradGradGradGradGradGradGradGradGradGradGradGradGradGradGradGradGrad
 Berny optimization.
 Search for a local minimum.
 Step number   1 out of a maximum of    2
 All quantities printed in internal units (Hartrees-Bohrs-Radians)
 Second derivative matrix not updated -- first step.
 ITU=  0
     Eigenvalues ---    0.00054   0.00058   0.00198   0.00245   0.00246
     Eigenvalues ---    0.00386   0.00443   0.00612   0.00663   0.00669
     Eigenvalues ---    0.00677   0.00824   0.00844   0.01320   0.01567
     Eigenvalues ---    0.01804   0.02021   0.02042   0.02541   0.02542
     Eigenvalues ---    0.03059   0.03119   0.04103   0.04202   0.04430
     Eigenvalues ---    0.04505   0.04671   0.05373   0.05526   0.06171
     Eigenvalues ---    0.06211   0.06893   0.06928   0.07031   0.07051
     Eigenvalues ---    0.07054   0.07257   0.07676   0.07742   0.09588
     Eigenvalues ---    0.09930   0.10187   0.10379   0.11552   0.11901
     Eigenvalues ---    0.11980   0.12215   0.12251   0.12820   0.13371
     Eigenvalues ---    0.13373   0.13451   0.13647   0.14764   0.15377
     Eigenvalues ---    0.15626   0.15875   0.19451   0.20025   0.20065
     Eigenvalues ---    0.21057   0.21989   0.24081   0.24794   0.28636
     Eigenvalues ---    0.29552   0.29853   0.30316   0.30791   0.31717
     Eigenvalues ---    0.31954   0.34784   0.35804   0.36533   0.37544
     Eigenvalues ---    0.37877   0.41193   0.41797   0.44597   0.47259
     Eigenvalues ---    0.48371   0.48514   0.49241   0.51008   0.52010
     Eigenvalues ---    0.53449   0.54279   0.55062   0.62916   0.63814
     Eigenvalues ---    0.68579   0.71374   0.72824   0.73990   0.86696
     Eigenvalues ---    0.90321   0.91054   0.91262   0.92913   0.94429
     Eigenvalues ---    0.95255   0.96881   1.00253   1.04311   1.12332
     Eigenvalues ---    1.15715   1.15960   1.18269   1.20786   1.24343
     Eigenvalues ---    1.30777   1.37812   1.37906   1.45628   1.47521
     Eigenvalues ---    1.50091   1.51303   1.53523   1.61351   1.64826
     Eigenvalues ---    1.65792   1.66883   1.78037   1.79361   1.84907
     Eigenvalues ---    1.87996
 Quadratic step=6.917D-01 exceeds max=3.000D-01 adjusted using Lamda=-5.069D-02.
 Angle between NR and scaled steps=  41.84 degrees.
 Angle between quadratic step and forces=  42.11 degrees.
 Linear search not attempted -- first point.
 B after Tr=    -0.000000   -0.000520   -0.000000
         Rot=    1.000000   -0.000000   -0.000000    0.000000 Ang=  -0.00 deg.
 Variable       Old X    -DE/DX   Delta X   Delta X   Delta X     New X
                                 (Linear)    (Quad)   (Total)
    X1       -0.00002   0.00003   0.00000   0.00002   0.00002   0.00001
    Y1        1.50049  -0.08926   0.00000  -0.16219  -0.16271   1.33778
    Z1        0.00024  -0.00001   0.00000  -0.00003  -0.00003   0.00021
    X2       -2.41908   0.07099   0.00000   0.09251   0.09251  -2.32657
    Y2        2.57125   0.03762   0.00000  -0.02299  -0.02351   2.54774
    Z2        0.00005   0.00001   0.00000   0.00002   0.00003   0.00007
    X3       -2.35229  -0.00769   0.00000   0.02342   0.02342  -2.32887
    Y3        5.20336   0.00781   0.00000   0.00170   0.00118   5.20453
    Z3       -0.00003   0.00000   0.00000   0.00001   0.00002  -0.00001
    X4        0.00001  -0.00001   0.00000  -0.00001  -0.00001   0.00000
    Y4        6.43411   0.00017   0.00000   0.02125   0.02073   6.45484
    Z4        0.00001  -0.00000   0.00000  -0.00000  -0.00000   0.00001
    X5        2.35228   0.00772   0.00000  -0.02341  -0.02341   2.32887
    Y5        5.20337   0.00780   0.00000   0.00168   0.00116   5.20453
    Z5        0.00006   0.00000   0.00000   0.00001   0.00001   0.00008
    X6        2.41912  -0.07104   0.00000  -0.09253  -0.09253   2.32659
    Y6        2.57124   0.03763   0.00000  -0.02298  -0.02350   2.54774
    Z6        0.00012   0.00001   0.00000   0.00002   0.00002   0.00014
    X7       -4.08041   0.00105   0.00000   0.02151   0.02151  -4.05890
    Y7        6.30798   0.00452   0.00000   0.01022   0.00970   6.31768
    Z7       -0.00008  -0.00000   0.00000  -0.00000  -0.00000  -0.00008
    X8        0.00000   0.00000   0.00000  -0.00000  -0.00000   0.00000
    Y8        8.48590   0.00050   0.00000   0.01985   0.01933   8.50523
    Z8       -0.00002  -0.00000   0.00000  -0.00001  -0.00001  -0.00003
    X9        4.08043  -0.00106   0.00000  -0.02152  -0.02152   4.05891
    Y9        6.30798   0.00452   0.00000   0.01022   0.00970   6.31768
    Z9        0.00009  -0.00000   0.00000  -0.00001  -0.00001   0.00008
   X10        6.97766  -0.01355   0.00000  -0.03259  -0.03259   6.94507
   Y10        1.10031  -0.00782   0.00000  -0.01539  -0.01591   1.08440
   Z10       -0.00006   0.00000   0.00000   0.00001   0.00001  -0.00005
   X11        3.62656   0.00041   0.00000  -0.03956  -0.03956   3.58700
   Y11       -1.71859   0.00512   0.00000   0.00750   0.00698  -1.71161
   Z11        0.00026  -0.00002   0.00000  -0.00006  -0.00006   0.00020
   X12        7.90938   0.01762   0.00000  -0.00813  -0.00813   7.90125
   Y12       -1.40345   0.00524   0.00000   0.00690   0.00638  -1.39707
   Z12       -0.00018  -0.00000   0.00000   0.00001   0.00001  -0.00017
   X13        8.59423   0.01490   0.00000  -0.01455  -0.01455   8.57967
   Y13        3.14518   0.00462   0.00000  -0.00248  -0.00301   3.14217
   Z13       -0.00011  -0.00000   0.00000  -0.00000  -0.00000  -0.00011
   X14       10.49373  -0.00174   0.00000  -0.01196  -0.01196  10.48177
   Y14       -1.88896   0.00607   0.00000   0.00409   0.00357  -1.88539
   Z14       -0.00037  -0.00000   0.00000   0.00000   0.00000  -0.00037
   X15       11.21076  -0.01475   0.00000  -0.03090  -0.03090  11.17987
   Y15        2.65230   0.00832   0.00000   0.00020  -0.00032   2.65198
   Z15       -0.00032   0.00000   0.00000  -0.00000   0.00000  -0.00032
   X16        7.89626   0.00025   0.00000  -0.00598  -0.00598   7.89028
   Y16        5.06965  -0.00016   0.00000  -0.00031  -0.00083   5.06882
   Z16        0.00001  -0.00000   0.00000  -0.00001  -0.00001   0.00001
   X17       12.12554   0.00257   0.00000  -0.01205  -0.01205  12.11348
   Y17        0.19854  -0.01287   0.00000  -0.01020  -0.01072   0.18782
   Z17       -0.00046  -0.00000   0.00000   0.00000   0.00000  -0.00046
   X18       11.20153   0.00122   0.00000  -0.00155  -0.00155  11.19998
   Y18       -3.81333   0.00011   0.00000   0.00606   0.00553  -3.80780
   Z18       -0.00045   0.00000   0.00000   0.00000   0.00000  -0.00045
   X19       12.51354   0.00025   0.00000  -0.02203  -0.02203  12.49151
   Y19        4.23745  -0.00038   0.00000  -0.00432  -0.00484   4.23260
   Z19       -0.00037  -0.00000   0.00000  -0.00000  -0.00000  -0.00037
   X20       14.15362  -0.00071   0.00000  -0.01137  -0.01137  14.14225
   Y20       -0.13093   0.00033   0.00000  -0.00237  -0.00289  -0.13383
   Z20       -0.00062   0.00000   0.00000   0.00000   0.00000  -0.00062
   X21       -6.97770   0.01362   0.00000   0.03262   0.03262  -6.94508
   Y21        1.10035  -0.00789   0.00000  -0.01544  -0.01596   1.08439
   Z21       -0.00008  -0.00000   0.00000   0.00001   0.00001  -0.00007
   X22       -3.62654  -0.00042   0.00000   0.03956   0.03956  -3.58698
   Y22       -1.71858   0.00512   0.00000   0.00751   0.00699  -1.71160
   Z22        0.00019  -0.00002   0.00000  -0.00006  -0.00006   0.00014
   X23       -7.90928  -0.01773   0.00000   0.00806   0.00806  -7.90122
   Y23       -1.40345   0.00523   0.00000   0.00688   0.00636  -1.39709
   Z23       -0.00013  -0.00000   0.00000   0.00001   0.00001  -0.00013
   X24       -8.59418  -0.01496   0.00000   0.01451   0.01451  -8.57966
   Y24        3.14511   0.00469   0.00000  -0.00244  -0.00296   3.14215
   Z24       -0.00011  -0.00000   0.00000  -0.00000  -0.00000  -0.00011
   X25      -10.49378   0.00183   0.00000   0.01202   0.01202 -10.48177
   Y25       -1.88898   0.00608   0.00000   0.00409   0.00357  -1.88541
   Z25       -0.00019  -0.00000   0.00000  -0.00000  -0.00000  -0.00019
   X26      -11.21079   0.01478   0.00000   0.03091   0.03091 -11.17987
   Y26        2.65229   0.00831   0.00000   0.00021  -0.00031   2.65198
   Z26       -0.00019   0.00000   0.00000  -0.00000  -0.00000  -0.00019
   X27       -7.89626  -0.00025   0.00000   0.00596   0.00596  -7.89030
   Y27        5.06965  -0.00018   0.00000  -0.00032  -0.00084   5.06881
   Z27       -0.00005  -0.00000   0.00000  -0.00000  -0.00000  -0.00005
   X28      -12.12550  -0.00261   0.00000   0.01204   0.01204 -12.11346
   Y28        0.19852  -0.01286   0.00000  -0.01019  -0.01071   0.18781
   Z28       -0.00024   0.00000   0.00000   0.00000  -0.00000  -0.00024
   X29      -11.20150  -0.00123   0.00000   0.00155   0.00155 -11.19995
   Y29       -3.81334   0.00010   0.00000   0.00603   0.00551  -3.80782
   Z29       -0.00019  -0.00000   0.00000  -0.00000  -0.00000  -0.00020
   X30      -12.51354  -0.00025   0.00000   0.02202   0.02202 -12.49152
   Y30        4.23743  -0.00037   0.00000  -0.00431  -0.00483   4.23260
   Z30       -0.00021  -0.00000   0.00000  -0.00000  -0.00000  -0.00021
   X31      -14.15362   0.00072   0.00000   0.01139   0.01139 -14.14223
   Y31       -0.13096   0.00033   0.00000  -0.00237  -0.00288  -0.13384
   Z31       -0.00029   0.00000   0.00000   0.00000   0.00000  -0.00029
   X32       -4.35614  -0.02320   0.00000   0.02964   0.02964  -4.32650
   Y32        0.88784  -0.06047   0.00000  -0.05908  -0.05960   0.82824
   Z32        0.00003   0.00001   0.00000   0.00002   0.00002   0.00005
   X33       -5.89500   0.02810   0.00000   0.05358   0.05358  -5.84142
   Y33       -3.03261   0.02324   0.00000   0.03174   0.03122  -3.00139
   Z33       -0.00009   0.00001   0.00000   0.00002   0.00002  -0.00007
   X34        4.35614   0.02321   0.00000  -0.02963  -0.02963   4.32652
   Y34        0.88787  -0.06050   0.00000  -0.05909  -0.05961   0.82826
   Z34        0.00015   0.00001   0.00000   0.00001   0.00001   0.00015
   X35        5.89498  -0.02806   0.00000  -0.05357  -0.05357   5.84141
   Y35       -3.03258   0.02323   0.00000   0.03173   0.03121  -3.00138
   Z35       -0.00006   0.00001   0.00000   0.00001   0.00001  -0.00005
   X36        6.04909   0.00026   0.00000  -0.02049  -0.02049   6.02860
   Y36       -5.72364  -0.01163   0.00000   0.01040   0.00988  -5.71376
   Z36        0.00001  -0.00000   0.00000   0.00001   0.00000   0.00002
   X37        7.02703   0.00068   0.00000  -0.00383  -0.00383   7.02320
   Y37       -6.42747   0.00159   0.00000   0.02524   0.02472  -6.40276
   Z37       -1.68815   0.00089   0.00000   0.00436   0.00436  -1.68379
   X38        7.02616   0.00068   0.00000  -0.00383  -0.00383   7.02233
   Y38       -6.42750   0.00159   0.00000   0.02523   0.02471  -6.40279
   Z38        1.68869  -0.00089   0.00000  -0.00435  -0.00436   1.68433
   X39        4.13334   0.00068   0.00000  -0.01280  -0.01280   4.12053
   Y39       -6.50004   0.00243   0.00000   0.00702   0.00650  -6.49354
   Z39       -0.00052   0.00000   0.00000   0.00001   0.00001  -0.00051
   X40       -6.04906  -0.00027   0.00000   0.02048   0.02048  -6.02858
   Y40       -5.72364  -0.01164   0.00000   0.01040   0.00988  -5.71376
   Z40        0.00008  -0.00000   0.00000   0.00001   0.00000   0.00009
   X41       -7.02602  -0.00067   0.00000   0.00383   0.00383  -7.02219
   Y41       -6.42748   0.00159   0.00000   0.02523   0.02471  -6.40277
   Z41        1.68885  -0.00090   0.00000  -0.00436  -0.00436   1.68449
   X42       -7.02714  -0.00067   0.00000   0.00383   0.00383  -7.02331
   Y42       -6.42753   0.00159   0.00000   0.02524   0.02472  -6.40281
   Z42       -1.68800   0.00090   0.00000   0.00437   0.00436  -1.68363
   X43       -4.13332  -0.00068   0.00000   0.01281   0.01280  -4.12052
   Y43       -6.50005   0.00243   0.00000   0.00703   0.00651  -6.49354
   Z43       -0.00058   0.00000   0.00000   0.00002   0.00001  -0.00056
   X44        0.00001  -0.00000   0.00000   0.00000   0.00000   0.00001
   Y44       -2.36283   0.05810   0.00000   0.10574   0.10522  -2.25761
   Z44        0.00016   0.00001   0.00000  -0.00002  -0.00002   0.00013
         Item               Value     Threshold  Converged?
 Maximum Force            0.089260     0.000450     NO 
 RMS     Force            0.017103     0.000300     NO 
 Maximum Displacement     0.162714     0.001800     NO 
 RMS     Displacement     0.026119     0.001200     NO 
 Predicted change in Energy=-2.415517D-02
 GradGradGradGradGradGradGradGradGradGradGradGradGradGradGradGradGradGrad

 Unable to Open any file for archive entry.
 1\1\GINC-X11P1N5\Force\UPBE1PBE\GenECP\C22H17Co1N4\MAYUMIAO\17-Jul-202
 4\0\\# pbe1pbe em=gd3bj genecp g09default scf=(xqc,maxcycle=64) force 
 guess=read nosymm\\Title Card\\0,1\C,-0.00000972,0.79402638,0.00012637
 \C,-1.28012164,1.36064646,0.00002462\C,-1.244779,2.75349811,-0.0000141
 9\C,0.00000753,3.40478664,0.00000787\C,1.24477426,2.75350489,0.0000330
 7\C,1.28014167,1.36063978,0.00006306\H,-2.15926142,3.33804079,-0.00004
 206\H,0.0000012,4.49054656,-0.00000855\H,2.15926804,3.33803951,0.00004
 721\C,3.69241605,0.58225642,-0.00003039\C,1.91909444,-0.90943642,0.000
 13574\C,4.18546163,-0.74267115,-0.00009548\C,4.5478686,1.66435567,-0.0
 0005985\C,5.55304084,-0.99959408,-0.00019816\C,5.93248001,1.40353521,-
 0.00017126\H,4.17852326,2.6827443,0.00000654\C,6.41655729,0.10506379,-
 0.00024286\H,5.92759184,-2.0179281,-0.00024057\H,6.62188018,2.24236107
 ,-0.00019652\H,7.48977395,-0.06928674,-0.00032825\C,-3.69244229,0.5822
 7871,-0.00004247\C,-1.91908135,-0.90943587,0.00010262\C,-4.18541132,-0
 .74267336,-0.00006988\C,-4.5478434,1.66432104,-0.00005579\C,-5.5530713
 8,-0.9996047,-0.00010051\C,-5.93249292,1.40353048,-0.00010083\H,-4.178
 52273,2.6827456,-0.00002426\C,-6.4165373,0.10505049,-0.00012445\H,-5.9
 2758059,-2.01793067,-0.00010168\H,-6.6218803,2.24234952,-0.00010897\H,
 -7.48977472,-0.06929963,-0.00015375\N,-2.30516981,0.46982429,0.0000153
 \N,-3.11949986,-1.60478639,-0.00004642\N,2.30517244,0.46983938,0.00007
 776\N,3.1194915,-1.60477475,-0.00003431\C,3.20103801,-3.02882002,0.000
 00781\H,3.71854591,-3.40127304,-0.8933318\H,3.71808129,-3.40128648,0.8
 9361619\H,2.18726677,-3.43967527,-0.00027453\C,-3.20102558,-3.02882068
 ,0.00004407\H,-3.7180089,-3.40127354,0.89370013\H,-3.71860204,-3.40130
 248,-0.89324939\H,-2.18725909,-3.43967846,-0.00030437\Co,0.00000429,-1
 .25035595,0.00008309\\Version=ES64L-G16RevC.01\HF=-1212.1177772\S2=0.\
 S2-1=0.\S2A=0.\RMSD=2.453e-09\RMSF=1.710e-02\Dipole=0.0000761,-1.44172
 08,-0.0001268\Quadrupole=13.4485439,7.2764739,-20.7250178,-0.0004647,-
 0.000393,0.0004426\PG=C01 [X(C22H17Co1N4)]\\@
 The archive entry for this job was punched.


 Money is a good servant but a bad master.
                        -- French Proverb
 Job cpu time:       0 days  0 hours 24 minutes 53.3 seconds.
 Elapsed time:       0 days  0 hours  0 minutes 27.3 seconds.
 File lengths (MBytes):  RWF=    184 Int=      0 D2E=      0 Chk=    162 Scr=      1
 Normal termination of Gaussian 16 at Wed Jul 17 21:18:11 2024.
