 Entering Gaussian System, Link 0=g16
 Input=JOBS/2_B.gjf
 Output=JOBS/2_B.log
 Initial command:
 /data/app/gaussian/C01-avx2//g16/l1.exe "/tmp/Gau-2035015.inp" -scrdir="/tmp/"
 Entering Link 1 = /data/app/gaussian/C01-avx2//g16/l1.exe PID=   2035016.
  
 Copyright (c) 1988-2019, Gaussian, Inc.  All Rights Reserved.
  
 This is part of the Gaussian(R) 16 program.  It is based on
 the Gaussian(R) 09 system (copyright 2009, Gaussian, Inc.),
 the Gaussian(R) 03 system (copyright 2003, Gaussian, Inc.),
 the Gaussian(R) 98 system (copyright 1998, Gaussian, Inc.),
 the Gaussian(R) 94 system (copyright 1995, Gaussian, Inc.),
 the Gaussian 92(TM) system (copyright 1992, Gaussian, Inc.),
 the Gaussian 90(TM) system (copyright 1990, Gaussian, Inc.),
 the Gaussian 88(TM) system (copyright 1988, Gaussian, Inc.),
 the Gaussian 86(TM) system (copyright 1986, Carnegie Mellon
 University), and the Gaussian 82(TM) system (copyright 1983,
 Carnegie Mellon University). Gaussian is a federally registered
 trademark of Gaussian, Inc.
  
 This software contains proprietary and confidential information,
 including trade secrets, belonging to Gaussian, Inc.
  
 This software is provided under written license and may be
 used, copied, transmitted, or stored only in accord with that
 written license.
  
 The following legend is applicable only to US Government
 contracts under FAR:
  
                    RESTRICTED RIGHTS LEGEND
  
 Use, reproduction and disclosure by the US Government is
 subject to restrictions as set forth in subparagraphs (a)
 and (c) of the Commercial Computer Software - Restricted
 Rights clause in FAR 52.227-19.
  
 Gaussian, Inc.
 340 Quinnipiac St., Bldg. 40, Wallingford CT 06492
  
  
 ---------------------------------------------------------------
 Warning -- This program may not be used in any manner that
 competes with the business of Gaussian, Inc. or will provide
 assistance to any competitor of Gaussian, Inc.  The licensee
 of this program is prohibited from giving any competitor of
 Gaussian, Inc. access to this program.  By using this program,
 the user acknowledges that Gaussian, Inc. is engaged in the
 business of creating and licensing software in the field of
 computational chemistry and represents and warrants to the
 licensee that it is not a competitor of Gaussian, Inc. and that
 it will not use this program in any manner prohibited above.
 ---------------------------------------------------------------
  

 Cite this work as:
 Gaussian 16, Revision C.01,
 M. J. Frisch, G. W. Trucks, H. B. Schlegel, G. E. Scuseria, 
 M. A. Robb, J. R. Cheeseman, G. Scalmani, V. Barone, 
 G. A. Petersson, H. Nakatsuji, X. Li, M. Caricato, A. V. Marenich, 
 J. Bloino, B. G. Janesko, R. Gomperts, B. Mennucci, H. P. Hratchian, 
 J. V. Ortiz, A. F. Izmaylov, J. L. Sonnenberg, D. Williams-Young, 
 F. Ding, F. Lipparini, F. Egidi, J. Goings, B. Peng, A. Petrone, 
 T. Henderson, D. Ranasinghe, V. G. Zakrzewski, J. Gao, N. Rega, 
 G. Zheng, W. Liang, M. Hada, M. Ehara, K. Toyota, R. Fukuda, 
 J. Hasegawa, M. Ishida, T. Nakajima, Y. Honda, O. Kitao, H. Nakai, 
 T. Vreven, K. Throssell, J. A. Montgomery, Jr., J. E. Peralta, 
 F. Ogliaro, M. J. Bearpark, J. J. Heyd, E. N. Brothers, K. N. Kudin, 
 V. N. Staroverov, T. A. Keith, R. Kobayashi, J. Normand, 
 K. Raghavachari, A. P. Rendell, J. C. Burant, S. S. Iyengar, 
 J. Tomasi, M. Cossi, J. M. Millam, M. Klene, C. Adamo, R. Cammi, 
 J. W. Ochterski, R. L. Martin, K. Morokuma, O. Farkas, 
 J. B. Foresman, and D. J. Fox, Gaussian, Inc., Wallingford CT, 2019.
 
 ******************************************
 Gaussian 16:  ES64L-G16RevC.01  3-Jul-2019
                17-Jul-2024 
 ******************************************
 %chk=b.chk
 %nprocshared=56
 Will use up to   56 processors via shared memory.
 %mem=96gb
 ----------------------------------------------------------------------
 # pbe1pbe em=gd3bj genecp g09default scf=(xqc,maxcycle=64) force guess
 =read nosymm
 ----------------------------------------------------------------------
 1/10=7,30=1,38=1,158=3,167=1/1,3;
 2/12=2,15=1,17=6,18=5,40=1/2;
 3/5=7,11=2,16=1,17=8,25=1,27=10,30=1,71=1,74=-13,75=-4,116=-2,124=41,158=3/1,2,3;
 4/5=1,60=-1/1;
 5/5=2,7=64,8=3,13=1,38=6,87=10/2,8;
 6/7=2,8=2,9=2,10=2,28=1,87=10/1;
 7/29=1,30=1,87=10/1,2,3,16;
 1/10=7,30=1,158=3,167=1/3;
 99//99;
 Using 2006 physical constants.
 ----------
 Title Card
 ----------
 Symbolic Z-matrix:
 Charge =  0 Multiplicity = 3
 6                     0.        0.67166   0.00007 
 6                    -1.21643   1.35211   0.00004 
 6                    -1.23056   2.75037   0. 
 6                    0.         3.41881   0.00001 
 6                     1.23056   2.75037   0.00005 
 6                     1.21643   1.35211   0.00008 
 1                    -2.15147   3.32265  -0.00005 
 1                     0.        4.50302  -0.00001 
 1                     2.15147   3.32265   0.00005 
 6                     3.65883   0.57482  -0.00002 
 6                     1.88903  -0.89615   0.00009 
 6                     4.16143  -0.73891  -0.0001 
 6                     4.52111   1.66406  -0.00005 
 6                     5.52797  -1.00293  -0.00021 
 6                     5.89487   1.39938  -0.00017 
 1                     4.15903   2.6839    0.00001 
 6                     6.38906   0.09659  -0.00024 
 1                     5.90696  -2.01805  -0.00025 
 1                     6.58917   2.23484  -0.0002 
 1                     7.46239  -0.07126  -0.00032 
 6                    -3.65882   0.57481  -0.00003 
 6                    -1.88902  -0.89615   0.00004 
 6                    -4.16143  -0.73892  -0.00006 
 6                    -4.52111   1.66406  -0.00005 
 6                    -5.52796  -1.00294  -0.0001 
 6                    -5.89486   1.39937  -0.0001 
 1                    -4.15903   2.68389  -0.00002 
 6                    -6.38906   0.09658  -0.00012 
 1                    -5.90696  -2.01806  -0.00011 
 1                    -6.58917   2.23483  -0.00011 
 1                    -7.46239  -0.07127  -0.00015 
 7                    -2.27267   0.44819   0.00001 
 7                    -3.07281  -1.59162  -0.00004 
 7                     2.27268   0.44819   0.00009 
 7                     3.07282  -1.59162  -0.00005 
 6                     3.17251  -3.02169   0. 
 1                     3.70364  -3.37575  -0.89216 
 1                     3.70322  -3.37575   0.89242 
 1                     2.16524  -3.44203  -0.00024 
 6                    -3.17251  -3.0217    0.00004 
 1                    -3.70315  -3.37574   0.8925 
 1                    -3.70369  -3.37577  -0.89208 
 1                    -2.16523  -3.44203  -0.00027 
 27                    0.       -1.16484   0.00013 
 

 GradGradGradGradGradGradGradGradGradGradGradGradGradGradGradGradGradGrad
 Berny optimization.
 Initialization pass.
 Trust Radius=3.00D-01 FncErr=1.00D-07 GrdErr=1.00D-07 EigMax=2.50D+02 EigMin=1.00D-04
 Number of steps in this run=      2 maximum allowed number of steps=      2.
 GradGradGradGradGradGradGradGradGradGradGradGradGradGradGradGradGradGrad

                          Input orientation:                          
 ---------------------------------------------------------------------
 Center     Atomic      Atomic             Coordinates (Angstroms)
 Number     Number       Type             X           Y           Z
 ---------------------------------------------------------------------
      1          6           0        0.000001    0.671657    0.000070
      2          6           0       -1.216432    1.352113    0.000039
      3          6           0       -1.230557    2.750372    0.000000
      4          6           0       -0.000000    3.418813    0.000013
      5          6           0        1.230561    2.750372    0.000052
      6          6           0        1.216434    1.352114    0.000084
      7          1           0       -2.151471    3.322649   -0.000045
      8          1           0        0.000001    4.503023   -0.000011
      9          1           0        2.151473    3.322650    0.000051
     10          6           0        3.658826    0.574818   -0.000019
     11          6           0        1.889027   -0.896154    0.000093
     12          6           0        4.161429   -0.738915   -0.000102
     13          6           0        4.521112    1.664059   -0.000051
     14          6           0        5.527971   -1.002931   -0.000206
     15          6           0        5.894868    1.399384   -0.000168
     16          1           0        4.159034    2.683898    0.000014
     17          6           0        6.389063    0.096587   -0.000241
     18          1           0        5.906965   -2.018052   -0.000251
     19          1           0        6.589167    2.234838   -0.000196
     20          1           0        7.462393   -0.071255   -0.000322
     21          6           0       -3.658821    0.574813   -0.000031
     22          6           0       -1.889024   -0.896155    0.000038
     23          6           0       -4.161426   -0.738923   -0.000064
     24          6           0       -4.521113    1.664056   -0.000049
     25          6           0       -5.527961   -1.002937   -0.000104
     26          6           0       -5.894863    1.399374   -0.000096
     27          1           0       -4.159034    2.683893   -0.000021
     28          6           0       -6.389063    0.096578   -0.000121
     29          1           0       -5.906958   -2.018061   -0.000111
     30          1           0       -6.589167    2.234830   -0.000109
     31          1           0       -7.462386   -0.071266   -0.000150
     32          7           0       -2.272671    0.448191    0.000011
     33          7           0       -3.072807   -1.591617   -0.000039
     34          7           0        2.272677    0.448193    0.000091
     35          7           0        3.072815   -1.591619   -0.000048
     36          6           0        3.172515   -3.021690    0.000000
     37          1           0        3.703637   -3.375753   -0.892161
     38          1           0        3.703220   -3.375751    0.892421
     39          1           0        2.165237   -3.442033   -0.000240
     40          6           0       -3.172507   -3.021696    0.000040
     41          1           0       -3.703148   -3.375744    0.892499
     42          1           0       -3.703686   -3.375770   -0.892082
     43          1           0       -2.165227   -3.442035   -0.000267
     44         27           0        0.000004   -1.164844    0.000132
 ---------------------------------------------------------------------
                    Distance matrix (angstroms):
                    1          2          3          4          5
     1  C    0.000000
     2  C    1.393818   0.000000
     3  C    2.415643   1.398330   0.000000
     4  C    2.747156   2.398114   1.400387   0.000000
     5  C    2.415644   2.818315   2.461119   1.400391   0.000000
     6  C    1.393819   2.432865   2.818313   2.398114   1.398329
     7  H    3.414175   2.181126   1.084243   2.153619   3.430108
     8  H    3.831366   3.377564   2.141509   1.084210   2.141510
     9  H    3.414176   3.902024   3.430106   2.153621   1.084242
    10  C    3.660106   4.936833   5.351551   4.634146   3.260292
    11  C    2.454883   3.833872   4.798849   4.710346   3.705499
    12  C    4.393996   5.770077   6.422510   5.882533   4.556875
    13  C    4.628748   5.746017   5.853356   4.849703   3.465227
    14  C    5.776045   7.143752   7.730782   7.078861   5.705700
    15  C    5.939617   7.111457   7.252369   6.231177   4.856020
    16  H    4.620246   5.537985   5.390001   4.223466   2.929227
    17  C    6.414891   7.708430   8.068531   7.201202   5.801096
    18  H    6.490512   7.880405   8.583827   8.028183   6.678818
    19  H    6.772048   7.855353   7.836699   6.694693   5.383347
    20  H    7.499281   8.794769   9.139418   8.238197   6.840856
    21  C    3.660104   2.563096   3.260294   4.634145   5.351553
    22  C    2.454883   2.346719   3.705500   4.710345   4.798851
    23  C    4.393997   3.611845   4.556882   5.882536   6.422515
    24  C    4.628750   3.319372   3.465233   4.849705   5.853362
    25  C    5.776040   4.912795   5.705700   7.078858   7.730780
    26  C    5.939612   4.678670   4.856021   6.231174   7.252369
    27  H    4.620245   3.229945   2.929231   4.223467   5.390005
    28  C    6.414894   5.322827   5.801104   7.201206   8.068538
    29  H    6.490512   5.775735   6.678822   8.028184   8.583830
    30  H    6.772048   5.444766   5.383352   6.694694   7.836704
    31  H    7.499277   6.406088   6.840857   8.238195   9.139419
    32  N    2.283632   1.390222   2.527061   3.740271   4.191977
    33  N    3.816354   3.480184   4.716646   5.877631   6.113252
    34  N    2.283636   3.604296   4.191978   3.740273   2.527060
    35  N    3.816360   5.202230   6.113256   5.877637   4.716649
    36  C    4.868846   6.196209   7.259735   7.179480   6.089983
    37  H    5.558284   6.881556   7.916541   7.789674   6.666450
    38  H    5.558024   6.881280   7.916309   7.789501   6.666314
    39  H    4.648730   5.866815   7.062386   7.194404   6.262547
    40  C    4.868847   4.791288   6.089987   7.179482   7.259737
    41  H    5.557985   5.415983   6.666299   7.789469   7.916264
    42  H    5.558318   5.416198   6.666467   7.789703   7.916585
    43  H    4.648728   4.887133   6.262548   7.194403   7.062385
    44  Co   1.836501   2.795494   4.104046   4.583657   4.104045
                    6          7          8          9         10
     6  C    0.000000
     7  H    3.902023   0.000000
     8  H    3.377563   2.454000   0.000000
     9  H    2.181126   4.302944   2.453999   0.000000
    10  C    2.563098   6.427295   5.368220   3.134117   0.000000
    11  C    2.346719   5.841568   5.720099   4.226959   2.301292
    12  C    3.611842   7.506598   6.692936   4.531692   1.406593
    13  C    3.319369   6.875630   5.338554   2.892424   1.389238
    14  C    4.912799   8.813879   7.802178   5.487384   2.446016
    15  C    4.678674   8.273000   6.661985   4.208559   2.383232
    16  H    3.229945   6.342750   4.539468   2.106729   2.167585
    17  C    5.322823   9.129523   7.761237   5.325848   2.771805
    18  H    5.775734   9.667547   8.798672   6.528921   3.431778
    19  H    5.444765   8.808069   6.968627   4.569077   3.367872
    20  H    6.406090  10.195340   8.752789   6.302735   3.858048
    21  C    4.936831   3.134120   5.368222   6.427295   7.317647
    22  C    3.833873   4.226959   5.720099   5.841569   5.739547
    23  C    5.770079   4.531698   6.692942   7.506601   7.929833
    24  C    5.746021   2.892427   5.338559   6.875634   8.252142
    25  C    7.143748   5.487384   7.802177   8.813876   9.321286
    26  C    7.111453   4.208559   6.661986   8.272998   9.589205
    27  H    5.537986   2.106732   4.539472   6.342752   8.097353
    28  C    7.708434   5.325854   7.761244   9.129529  10.059264
    29  H    7.880405   6.528925   8.798676   9.667548   9.910966
    30  H    7.855354   4.569080   6.968632   8.808072  10.381570
    31  H    8.794767   6.302736   8.752790  10.195339  11.139963
    32  N    3.604293   2.877012   4.648301   5.275942   5.932849
    33  N    5.202225   4.999887   6.825451   7.172386   7.071657
    34  N    1.390225   5.275944   4.648301   2.877011   1.391921
    35  N    3.480189   7.172391   6.825456   4.999891   2.244294
    36  C    4.791286   8.282238   8.166159   6.425977   3.629239
    37  H    5.416181   8.941294   8.751455   6.933531   4.050301
    38  H    5.416002   8.941055   8.751305   6.933456   4.050360
    39  H    4.887134   8.024643   8.234814   6.764697   4.285545
    40  C    6.196210   6.425981   8.166162   8.282240   7.720235
    41  H    6.881230   6.933455   8.751277   8.941002   8.402511
    42  H    6.881601   6.933536   8.751484   8.941343   8.402947
    43  H    5.866813   6.764698   8.234814   8.024641   7.074935
    44  Co   2.795493   4.976589   5.667867   4.976587   4.051346
                   11         12         13         14         15
    11  C    0.000000
    12  C    2.277836   0.000000
    13  C    3.671860   2.429744   0.000000
    14  C    3.640510   1.391812   2.850719   0.000000
    15  C    4.616953   2.752659   1.399021   2.430170   0.000000
    16  H    4.239069   3.422814   1.082207   3.932772   2.159421
    17  C    4.608238   2.379163   2.438485   1.396574   1.393380
    18  H    4.171627   2.164044   3.934276   1.083562   3.417457
    19  H    5.647514   3.838895   2.145376   3.407240   1.086294
    20  H    5.634080   3.367808   3.415033   2.147093   2.149398
    21  C    5.739544   7.929830   8.252137   9.321289   9.589207
    22  C    3.778052   6.052497   6.902503   7.417764   8.115324
    23  C    6.052496   8.322855   9.008928   9.692993  10.281119
    24  C    6.902505   9.008930   9.042225  10.396967  10.419344
    25  C    7.417757   9.692987  10.396958  11.055932  11.672711
    26  C    8.115318  10.281113  10.419337  11.672712  11.789731
    27  H    7.028213   8.996984   8.739851  10.364880  10.135626
    28  C    8.337404  10.583522  11.022201  11.967649  12.352825
    29  H    7.876298  10.149317  11.059053  11.479900  12.286661
    30  H    9.037855  11.154303  11.124930  12.542253  12.511958
    31  H    9.387725  11.642974  12.108492  13.023724  13.437971
    32  N    4.373442   6.542696   6.901726   7.934467   8.222741
    33  N    5.010336   7.284317   8.262387   8.620901   9.453322
    34  N    1.398018   2.230832   2.556128   3.564085   3.745001
    35  N    1.372962   1.382818   3.563285   2.524746   4.112187
    36  C    2.482992   2.487774   4.875958   3.102187   5.192023
    37  H    3.199584   2.821039   5.183033   3.123150   5.329079
    38  H    3.199366   2.821251   5.183159   3.123584   5.329348
    39  H    2.560819   3.360302   5.623372   4.154178   6.111421
    40  C    5.489724   7.680997   9.008223   8.931615  10.087777
    41  H    6.182005   8.342732   9.686832   9.572916  10.757352
    42  H    6.182469   8.343182   9.687255   9.573365  10.757781
    43  H    4.787326   6.879930   8.413045   8.070596   9.402365
    44  Co   1.908037   4.183166   5.333208   5.530338   6.428429
                   16         17         18         19         20
    16  H    0.000000
    17  C    3.415730   0.000000
    18  H    5.016333   2.168897   0.000000
    19  H    2.471275   2.147594   4.307258   0.000000
    20  H    4.301517   1.086374   2.491861   2.465885   0.000000
    21  C    8.097351  10.059258   9.910964  10.381567  11.139964
    22  C    7.028214   8.337402   7.876300   9.037856   9.387729
    23  C    8.996986  10.583520  10.149318  11.154304  11.642978
    24  C    8.739854  11.022201  11.059056  11.124932  12.108498
    25  C   10.364875  11.967641  11.479895  12.542248  13.023722
    26  C   10.135623  12.352817  12.286656  12.511954  13.437970
    27  H    8.318068  10.860778  11.110023  10.757577  11.943551
    28  C   10.860782  12.778127  12.476536  13.153198  13.852473
    29  H   11.110023  12.476533  11.813923  13.200011  13.510351
    30  H   10.757578  13.153195  13.200011  13.178333  14.239535
    31  H   11.943548  13.852466  13.510348  14.239531  14.924779
    32  N    6.809201   8.668868   8.543348   9.040148   9.748913
    33  N    8.401164   9.611297   8.989891  10.392088  10.644338
    34  N    2.925188   4.131375   4.392085   4.671636   5.215647
    35  N    4.411339   3.721228   2.866051   5.196778   4.645417
    36  C    5.790247   4.479937   2.912818   6.269338   5.206546
    37  H    6.141884   4.479306   2.737428   6.371862   5.083634
    38  H    6.141946   4.479702   2.738010   6.372139   5.084099
    39  H    6.442225   5.510221   4.003529   7.197084   6.278694
    40  C    9.290065  10.057202   9.134775  11.086994  11.036585
    41  H    9.966429  10.710126   9.746517  11.756159  11.678445
    42  H    9.966834  10.710567   9.746967  11.756581  11.678886
    43  H    8.804734   9.257306   8.196829  10.433901  10.200648
    44  Co   5.666600   6.512395   5.968262   7.414506   7.542094
                   21         22         23         24         25
    21  C    0.000000
    22  C    2.301288   0.000000
    23  C    1.406597   2.277834   0.000000
    24  C    1.389244   3.671862   2.429750   0.000000
    25  C    2.446013   3.640503   1.391806   2.850718   0.000000
    26  C    2.383230   4.616946   2.752657   1.399015   2.430168
    27  H    2.167586   4.239066   3.422817   1.082205   3.932769
    28  C    2.771810   4.608239   2.379166   2.438488   1.396578
    29  H    3.431780   4.171626   2.164041   3.934278   1.083565
    30  H    3.367875   5.647513   3.838897   2.145373   3.407241
    31  H    3.858047   5.634075   3.367804   3.415030   2.147094
    32  N    1.391921   1.398017   2.230837   2.556134   3.564083
    33  N    2.244289   1.372957   1.382815   3.563285   2.524743
    34  N    5.932849   4.373446   6.542700   6.901732   7.934465
    35  N    7.071659   5.010342   7.284321   8.262395   8.620899
    36  C    7.720233   5.489725   7.680997   9.008226   8.931610
    37  H    8.402895   6.182417   8.343136   9.687211   9.573318
    38  H    8.402563   6.182066   8.342784   9.686888   9.572959
    39  H    7.074935   4.787331   6.879932   8.413051   8.070595
    40  C    3.629240   2.482993   2.487773   4.875963   3.102185
    41  H    4.050367   3.199358   2.821260   5.183173   3.123603
    42  H    4.050293   3.199589   2.821025   5.183026   3.123130
    43  H    4.285545   2.560819   3.360301   5.623377   4.154176
    44  Co   4.051346   1.908041   4.183169   5.333214   5.530336
                   26         27         28         29         30
    26  C    0.000000
    27  H    2.159418   0.000000
    28  C    1.393382   3.415732   0.000000
    29  H    3.417456   5.016333   2.168899   0.000000
    30  H    1.086298   2.471275   2.147594   4.307259   0.000000
    31  H    2.149398   4.301515   1.086367   2.491860   2.465885
    32  N    3.744999   2.925188   4.131382   4.392088   4.671639
    33  N    4.112180   4.411334   3.721231   2.866054   5.196776
    34  N    8.222740   6.809204   8.668874   8.543350   9.040152
    35  N    9.453322   8.401169   9.611304   8.989893  10.392093
    36  C   10.087772   9.290064  10.057205   9.134774  11.086994
    37  H   10.757733   9.966785  10.710528   9.746928  11.756538
    38  H   10.757397   9.966482  10.710176   9.746561  11.756209
    39  H    9.402363   8.804736   9.257312   8.196831  10.433904
    40  C    5.192021   5.790249   4.479941   2.912818   6.269340
    41  H    5.329361   6.141955   4.479724   2.738035   6.372157
    42  H    5.329061   6.141875   4.479291   2.737406   6.371847
    43  H    6.111418   6.442224   5.510225   4.003530   7.197085
    44  Co   6.428426   5.666601   6.512401   5.968264   7.414509
                   31         32         33         34         35
    31  H    0.000000
    32  N    5.215647   0.000000
    33  N    4.645414   2.191126   0.000000
    34  N    9.748912   4.545348   5.721453   0.000000
    35  N   10.644339   5.721455   6.145623   2.191130   0.000000
    36  C   11.036581   6.456789   6.406962   3.584661   1.433543
    37  H   11.678843   7.150858   7.063938   4.179273   2.092113
    38  H   11.678487   7.150538   7.063580   4.179145   2.092137
    39  H   10.200647   5.901599   5.555281   3.891709   2.061002
    40  C    5.206544   3.584665   1.433550   6.456792   6.406963
    41  H    5.084119   4.179148   2.092142   7.150480   7.063528
    42  H    5.083612   4.179272   2.092117   7.150915   7.063986
    43  H    6.278693   3.891710   2.061007   5.901598   5.555279
    44  Co   7.542094   2.786922   3.102306   2.786921   3.102307
                   36         37         38         39         40
    36  C    0.000000
    37  H    1.096997   0.000000
    38  H    1.097005   1.784582   0.000000
    39  H    1.091465   1.779491   1.779502   0.000000
    40  C    6.345022   6.942819   6.942429   5.354269   0.000000
    41  H    6.942381   7.618758   7.406368   5.936272   1.097001
    42  H    6.942862   7.407323   7.618839   5.936669   1.096996
    43  H    5.354267   5.936617   5.936325   4.330464   1.091466
    44  Co   3.675963   4.404680   4.404327   3.142265   3.675966
                   41         42         43         44
    41  H    0.000000
    42  H    1.784581   0.000000
    43  H    1.779502   1.779490   0.000000
    44  Co   4.404285   4.404720   3.142264   0.000000
 Symmetry turned off by external request.
 Stoichiometry    C22H17CoN4(3)
 Framework group  C1[X(C22H17CoN4)]
 Deg. of freedom   126
 Full point group                 C1      NOp   1
 Rotational constants (GHZ):           0.4708197           0.1017897           0.0837842
 General basis read from cards:  (5D, 7F)
 ======================================================================================================
                                       Pseudopotential Parameters
 ======================================================================================================
  Center     Atomic      Valence      Angular      Power
  Number     Number     Electrons     Momentum     of R      Exponent        Coefficient   SO-Coeffient
 ======================================================================================================
    1          6
                                   No pseudopotential on this center.
    2          6
                                   No pseudopotential on this center.
    3          6
                                   No pseudopotential on this center.
    4          6
                                   No pseudopotential on this center.
    5          6
                                   No pseudopotential on this center.
    6          6
                                   No pseudopotential on this center.
    7          1
                                   No pseudopotential on this center.
    8          1
                                   No pseudopotential on this center.
    9          1
                                   No pseudopotential on this center.
   10          6
                                   No pseudopotential on this center.
   11          6
                                   No pseudopotential on this center.
   12          6
                                   No pseudopotential on this center.
   13          6
                                   No pseudopotential on this center.
   14          6
                                   No pseudopotential on this center.
   15          6
                                   No pseudopotential on this center.
   16          1
                                   No pseudopotential on this center.
   17          6
                                   No pseudopotential on this center.
   18          1
                                   No pseudopotential on this center.
   19          1
                                   No pseudopotential on this center.
   20          1
                                   No pseudopotential on this center.
   21          6
                                   No pseudopotential on this center.
   22          6
                                   No pseudopotential on this center.
   23          6
                                   No pseudopotential on this center.
   24          6
                                   No pseudopotential on this center.
   25          6
                                   No pseudopotential on this center.
   26          6
                                   No pseudopotential on this center.
   27          1
                                   No pseudopotential on this center.
   28          6
                                   No pseudopotential on this center.
   29          1
                                   No pseudopotential on this center.
   30          1
                                   No pseudopotential on this center.
   31          1
                                   No pseudopotential on this center.
   32          7
                                   No pseudopotential on this center.
   33          7
                                   No pseudopotential on this center.
   34          7
                                   No pseudopotential on this center.
   35          7
                                   No pseudopotential on this center.
   36          6
                                   No pseudopotential on this center.
   37          1
                                   No pseudopotential on this center.
   38          1
                                   No pseudopotential on this center.
   39          1
                                   No pseudopotential on this center.
   40          6
                                   No pseudopotential on this center.
   41          1
                                   No pseudopotential on this center.
   42          1
                                   No pseudopotential on this center.
   43          1
                                   No pseudopotential on this center.
   44         27           17
                                      F and up 
                                                     2        1.0000000        0.00000000    0.00000000
                                      S - F
                                                     2       23.6600000      283.96056600    0.00000000
                                                     2       10.6100000       47.15684600    0.00000000
                                      P - F
                                                     2       25.0400000      182.21223600    0.00000000
                                                     2       10.4400000       35.23335200    0.00000000
                                      D - F
                                                     2       29.5400000      -26.47533300    0.00000000
                                                     2       10.1800000       -1.82578700    0.00000000
 ======================================================================================================
   441 basis functions,   871 primitive gaussians,   473 cartesian basis functions
    98 alpha electrons       96 beta electrons
       nuclear repulsion energy      2501.8677204841 Hartrees.
 NAtoms=   44 NActive=   44 NUniq=   44 SFac= 1.00D+00 NAtFMM=   60 NAOKFM=F Big=F
 Integral buffers will be    131072 words long.
 Raffenetti 2 integral format.
 Two-electron integral symmetry is turned off.
 Nuclear repulsion after empirical dispersion term =     2501.8084944046 Hartrees.
 One-electron integrals computed using PRISM.
   1 Symmetry operations used in ECPInt.
 ECPInt:  NShTT=   11781 NPrTT=   71406 LenC2=    9560 LenP2D=   32143.
 LDataN:  DoStor=T MaxTD1= 6 Len=  172
 NBasis=   441 RedAO= T EigKep=  3.51D-04  NBF=   441
 NBsUse=   441 1.00D-06 EigRej= -1.00D+00 NBFU=   441
 Initial guess from the checkpoint file:  "b.chk"
 B after Tr=    -0.000000    0.005078    0.000003
         Rot=    1.000000    0.000000   -0.000000    0.000000 Ang=   0.00 deg.
 Initial guess <Sx>= 0.0000 <Sy>= 0.0000 <Sz>= 1.0000 <S**2>= 2.1728 S= 1.0565
 Requested convergence on RMS density matrix=1.00D-08 within  64 cycles.
 Requested convergence on MAX density matrix=1.00D-06.
 Requested convergence on             energy=1.00D-06.
 No special actions if energy rises.
 Restarting incremental Fock formation.
 SCF Done:  E(UPBE1PBE) =  -1212.13735822     A.U. after   28 cycles
            NFock= 28  Conv=0.20D-08     -V/T= 2.0552
 <Sx>= 0.0000 <Sy>= 0.0000 <Sz>= 1.0000 <S**2>= 2.1445 S= 1.0474
 <L.S>=  0.00000000000    
 Annihilation of the first spin contaminant:
 S**2 before annihilation     2.1445,   after     2.0033
 QCSCF skips out because SCF is already converged.

 **********************************************************************

            Population analysis using the SCF Density.

 **********************************************************************

 Alpha  occ. eigenvalues --  -14.45070 -14.45070 -14.44595 -14.44594 -10.27378
 Alpha  occ. eigenvalues --  -10.27377 -10.27242 -10.27242 -10.27219 -10.27219
 Alpha  occ. eigenvalues --  -10.26998 -10.26997 -10.26177 -10.26177 -10.23663
 Alpha  occ. eigenvalues --  -10.23663 -10.23517 -10.23517 -10.23026 -10.23026
 Alpha  occ. eigenvalues --  -10.22920 -10.22920 -10.22470 -10.22249 -10.22244
 Alpha  occ. eigenvalues --  -10.19717  -3.93661  -2.46489  -2.43610  -2.42709
 Alpha  occ. eigenvalues --   -1.05996  -1.05899  -0.96622  -0.96132  -0.88035
 Alpha  occ. eigenvalues --   -0.87636  -0.85624  -0.80082  -0.78894  -0.77644
 Alpha  occ. eigenvalues --   -0.77533  -0.75648  -0.75017  -0.72879  -0.72807
 Alpha  occ. eigenvalues --   -0.66614  -0.65147  -0.64314  -0.63812  -0.62876
 Alpha  occ. eigenvalues --   -0.61232  -0.58860  -0.57873  -0.56310  -0.53822
 Alpha  occ. eigenvalues --   -0.52961  -0.52013  -0.49727  -0.49638  -0.49378
 Alpha  occ. eigenvalues --   -0.48180  -0.47377  -0.47137  -0.46888  -0.45863
 Alpha  occ. eigenvalues --   -0.45786  -0.45109  -0.44829  -0.44741  -0.44001
 Alpha  occ. eigenvalues --   -0.42374  -0.42073  -0.41575  -0.39004  -0.38918
 Alpha  occ. eigenvalues --   -0.38630  -0.38046  -0.37419  -0.37264  -0.36759
 Alpha  occ. eigenvalues --   -0.36300  -0.34883  -0.34687  -0.33728  -0.32177
 Alpha  occ. eigenvalues --   -0.31742  -0.30296  -0.30085  -0.27243  -0.26988
 Alpha  occ. eigenvalues --   -0.26502  -0.26064  -0.24592  -0.23729  -0.22867
 Alpha  occ. eigenvalues --   -0.20775  -0.20774  -0.09859
 Alpha virt. eigenvalues --   -0.05682  -0.02196  -0.00093   0.00274   0.00323
 Alpha virt. eigenvalues --    0.02330   0.02973   0.03856   0.04557   0.05640
 Alpha virt. eigenvalues --    0.06492   0.07919   0.08042   0.09806   0.10244
 Alpha virt. eigenvalues --    0.12519   0.12953   0.13875   0.13960   0.15267
 Alpha virt. eigenvalues --    0.15313   0.15426   0.15947   0.16529   0.16547
 Alpha virt. eigenvalues --    0.16996   0.17755   0.17971   0.18280   0.18373
 Alpha virt. eigenvalues --    0.19346   0.19770   0.19989   0.20223   0.21022
 Alpha virt. eigenvalues --    0.22163   0.23257   0.23341   0.24285   0.25685
 Alpha virt. eigenvalues --    0.25951   0.26080   0.26425   0.27487   0.27756
 Alpha virt. eigenvalues --    0.28053   0.28831   0.29808   0.30993   0.31475
 Alpha virt. eigenvalues --    0.32747   0.33482   0.34374   0.34719   0.36700
 Alpha virt. eigenvalues --    0.37729   0.38107   0.39358   0.39937   0.41336
 Alpha virt. eigenvalues --    0.42053   0.44879   0.45379   0.46473   0.46745
 Alpha virt. eigenvalues --    0.48335   0.50596   0.50956   0.51725   0.52810
 Alpha virt. eigenvalues --    0.53947   0.54151   0.56276   0.56454   0.56486
 Alpha virt. eigenvalues --    0.56517   0.57579   0.57976   0.58590   0.58699
 Alpha virt. eigenvalues --    0.58798   0.59918   0.60631   0.61546   0.61571
 Alpha virt. eigenvalues --    0.61676   0.62329   0.63038   0.63040   0.63318
 Alpha virt. eigenvalues --    0.63558   0.63951   0.63979   0.64039   0.64569
 Alpha virt. eigenvalues --    0.65138   0.65973   0.66133   0.66908   0.67426
 Alpha virt. eigenvalues --    0.67588   0.68069   0.68670   0.71049   0.71900
 Alpha virt. eigenvalues --    0.71916   0.73929   0.75652   0.76496   0.76908
 Alpha virt. eigenvalues --    0.77379   0.78196   0.80166   0.80510   0.81395
 Alpha virt. eigenvalues --    0.81807   0.82451   0.83511   0.83885   0.84244
 Alpha virt. eigenvalues --    0.84643   0.85243   0.85766   0.87078   0.87086
 Alpha virt. eigenvalues --    0.87415   0.87808   0.89695   0.90911   0.91072
 Alpha virt. eigenvalues --    0.91249   0.91482   0.91648   0.93072   0.93370
 Alpha virt. eigenvalues --    0.93440   0.94220   0.95472   0.95658   0.96305
 Alpha virt. eigenvalues --    0.97366   0.97672   0.98241   0.98272   0.98509
 Alpha virt. eigenvalues --    1.00115   1.00383   1.01598   1.02170   1.03185
 Alpha virt. eigenvalues --    1.04125   1.04585   1.06111   1.07308   1.07497
 Alpha virt. eigenvalues --    1.08773   1.09208   1.10099   1.10965   1.14101
 Alpha virt. eigenvalues --    1.15311   1.16353   1.16840   1.18148   1.18635
 Alpha virt. eigenvalues --    1.19070   1.21283   1.23777   1.23880   1.24655
 Alpha virt. eigenvalues --    1.25065   1.26445   1.27309   1.28766   1.29101
 Alpha virt. eigenvalues --    1.30078   1.30567   1.31006   1.33335   1.33681
 Alpha virt. eigenvalues --    1.34684   1.36603   1.36829   1.38310   1.38958
 Alpha virt. eigenvalues --    1.40835   1.40896   1.42052   1.42616   1.45071
 Alpha virt. eigenvalues --    1.45405   1.45734   1.46742   1.47316   1.48330
 Alpha virt. eigenvalues --    1.49233   1.49496   1.49735   1.50369   1.50382
 Alpha virt. eigenvalues --    1.51399   1.52892   1.55490   1.57917   1.58050
 Alpha virt. eigenvalues --    1.60265   1.60402   1.64211   1.65477   1.66683
 Alpha virt. eigenvalues --    1.69721   1.71479   1.73744   1.74898   1.77604
 Alpha virt. eigenvalues --    1.79642   1.79900   1.80293   1.82156   1.83380
 Alpha virt. eigenvalues --    1.84508   1.86447   1.87052   1.87127   1.87938
 Alpha virt. eigenvalues --    1.88841   1.89966   1.91379   1.92415   1.93833
 Alpha virt. eigenvalues --    1.95092   1.95857   1.96715   1.97084   1.98003
 Alpha virt. eigenvalues --    1.98034   1.98964   1.99208   2.00010   2.00025
 Alpha virt. eigenvalues --    2.01003   2.01051   2.02258   2.03611   2.05386
 Alpha virt. eigenvalues --    2.08382   2.09036   2.10611   2.13391   2.13581
 Alpha virt. eigenvalues --    2.14443   2.14933   2.15570   2.16571   2.16709
 Alpha virt. eigenvalues --    2.18091   2.18304   2.18995   2.19211   2.20458
 Alpha virt. eigenvalues --    2.21151   2.21764   2.23512   2.24540   2.24641
 Alpha virt. eigenvalues --    2.25003   2.26911   2.27252   2.27848   2.27886
 Alpha virt. eigenvalues --    2.27982   2.27996   2.28501   2.29449   2.32694
 Alpha virt. eigenvalues --    2.36225   2.36665   2.40229   2.40644   2.40862
 Alpha virt. eigenvalues --    2.41903   2.43347   2.46705   2.46731   2.46902
 Alpha virt. eigenvalues --    2.50941   2.52862   2.56840   2.58157   2.58163
 Alpha virt. eigenvalues --    2.58839   2.58841   2.61142   2.63279   2.63620
 Alpha virt. eigenvalues --    2.65713   2.66978   2.68016   2.69146   2.70716
 Alpha virt. eigenvalues --    2.72024   2.72319   2.73239   2.75362   2.76090
 Alpha virt. eigenvalues --    2.76192   2.76742   2.78262   2.78527   2.83701
 Alpha virt. eigenvalues --    2.86811   2.87184   2.89125   2.90054   2.93455
 Alpha virt. eigenvalues --    2.94517   2.96402   2.97513   2.99185   3.02916
 Alpha virt. eigenvalues --    3.06370   3.08256   3.16313   3.19583   3.20244
 Alpha virt. eigenvalues --    3.26726   3.40458   3.42875   3.46865   3.49679
 Alpha virt. eigenvalues --    3.52146   3.60169   5.55320   5.56280   5.57767
 Alpha virt. eigenvalues --    5.60409   5.61198   5.62571   5.64208  45.69778
 Alpha virt. eigenvalues --   45.93748  45.95599  63.00728
  Beta  occ. eigenvalues --  -14.44933 -14.44933 -14.44564 -14.44563 -10.27251
  Beta  occ. eigenvalues --  -10.27251 -10.27225 -10.27225 -10.27163 -10.27162
  Beta  occ. eigenvalues --  -10.27032 -10.27032 -10.26019 -10.26019 -10.23606
  Beta  occ. eigenvalues --  -10.23606 -10.23491 -10.23491 -10.23029 -10.23029
  Beta  occ. eigenvalues --  -10.22890 -10.22890 -10.22370 -10.22356 -10.22276
  Beta  occ. eigenvalues --  -10.20009  -3.87161  -2.38896  -2.38144  -2.34817
  Beta  occ. eigenvalues --   -1.05781  -1.05684  -0.96408  -0.95905  -0.87974
  Beta  occ. eigenvalues --   -0.87560  -0.85574  -0.79980  -0.78833  -0.77579
  Beta  occ. eigenvalues --   -0.77455  -0.75491  -0.74817  -0.72877  -0.72832
  Beta  occ. eigenvalues --   -0.66634  -0.64863  -0.64082  -0.63812  -0.62800
  Beta  occ. eigenvalues --   -0.61128  -0.58816  -0.57802  -0.56270  -0.53765
  Beta  occ. eigenvalues --   -0.52921  -0.51935  -0.49380  -0.49253  -0.49184
  Beta  occ. eigenvalues --   -0.48118  -0.47335  -0.47115  -0.46807  -0.45821
  Beta  occ. eigenvalues --   -0.45770  -0.45056  -0.44809  -0.44322  -0.43682
  Beta  occ. eigenvalues --   -0.42378  -0.42040  -0.41569  -0.39043  -0.38615
  Beta  occ. eigenvalues --   -0.38455  -0.37497  -0.37245  -0.36649  -0.36312
  Beta  occ. eigenvalues --   -0.36266  -0.34880  -0.34122  -0.33074  -0.31352
  Beta  occ. eigenvalues --   -0.30609  -0.29491  -0.26298  -0.26109  -0.25186
  Beta  occ. eigenvalues --   -0.24703  -0.23912  -0.21997  -0.21013  -0.20514
  Beta  occ. eigenvalues --   -0.19929
  Beta virt. eigenvalues --   -0.04599  -0.04140  -0.01410  -0.00342   0.00102
  Beta virt. eigenvalues --    0.01262   0.01719   0.02477   0.03743   0.05706
  Beta virt. eigenvalues --    0.06010   0.06134   0.08130   0.09190   0.09220
  Beta virt. eigenvalues --    0.10272   0.10716   0.12634   0.13037   0.14086
  Beta virt. eigenvalues --    0.14147   0.15446   0.15673   0.16025   0.16056
  Beta virt. eigenvalues --    0.16693   0.17049   0.17159   0.17827   0.18090
  Beta virt. eigenvalues --    0.18761   0.19141   0.19498   0.20060   0.20480
  Beta virt. eigenvalues --    0.21304   0.22324   0.23312   0.23331   0.23562
  Beta virt. eigenvalues --    0.24355   0.25862   0.26034   0.26054   0.27529
  Beta virt. eigenvalues --    0.27742   0.27834   0.29172   0.29385   0.30298
  Beta virt. eigenvalues --    0.31320   0.31688   0.32875   0.33757   0.34662
  Beta virt. eigenvalues --    0.34779   0.36883   0.37911   0.38392   0.39557
  Beta virt. eigenvalues --    0.40015   0.41352   0.42598   0.45109   0.45775
  Beta virt. eigenvalues --    0.46878   0.47096   0.48682   0.50780   0.51312
  Beta virt. eigenvalues --    0.51786   0.52903   0.54045   0.54284   0.56319
  Beta virt. eigenvalues --    0.56498   0.56607   0.56771   0.57658   0.58156
  Beta virt. eigenvalues --    0.58713   0.58844   0.58994   0.59982   0.60714
  Beta virt. eigenvalues --    0.61562   0.61814   0.61833   0.62213   0.63114
  Beta virt. eigenvalues --    0.63191   0.63380   0.63721   0.64000   0.64037
  Beta virt. eigenvalues --    0.64107   0.64632   0.65097   0.66141   0.66205
  Beta virt. eigenvalues --    0.67397   0.67788   0.67816   0.68144   0.68878
  Beta virt. eigenvalues --    0.71042   0.72096   0.72284   0.74354   0.75758
  Beta virt. eigenvalues --    0.76602   0.77002   0.77737   0.78711   0.80650
  Beta virt. eigenvalues --    0.80651   0.81585   0.82035   0.82624   0.83775
  Beta virt. eigenvalues --    0.84268   0.84380   0.84723   0.85501   0.85929
  Beta virt. eigenvalues --    0.87099   0.87431   0.87508   0.87837   0.89752
  Beta virt. eigenvalues --    0.91126   0.91190   0.91365   0.91665   0.91770
  Beta virt. eigenvalues --    0.93134   0.93466   0.94247   0.94289   0.95733
  Beta virt. eigenvalues --    0.96598   0.96813   0.97391   0.97723   0.98329
  Beta virt. eigenvalues --    0.98538   0.98652   1.00238   1.00398   1.01720
  Beta virt. eigenvalues --    1.02235   1.03236   1.04202   1.04663   1.06182
  Beta virt. eigenvalues --    1.07391   1.08801   1.09266   1.10177   1.11248
  Beta virt. eigenvalues --    1.14208   1.15068   1.15417   1.16421   1.16871
  Beta virt. eigenvalues --    1.18218   1.18674   1.19117   1.21394   1.23941
  Beta virt. eigenvalues --    1.24110   1.24723   1.25121   1.26648   1.27554
  Beta virt. eigenvalues --    1.29091   1.29341   1.30284   1.30846   1.31297
  Beta virt. eigenvalues --    1.33699   1.33977   1.35180   1.36894   1.37127
  Beta virt. eigenvalues --    1.38576   1.39148   1.41101   1.41200   1.42166
  Beta virt. eigenvalues --    1.43087   1.45157   1.45505   1.45878   1.46893
  Beta virt. eigenvalues --    1.47400   1.48427   1.49477   1.49549   1.49979
  Beta virt. eigenvalues --    1.50500   1.50523   1.51716   1.53277   1.56554
  Beta virt. eigenvalues --    1.58013   1.58409   1.60387   1.61228   1.65070
  Beta virt. eigenvalues --    1.65891   1.66978   1.70122   1.71673   1.73913
  Beta virt. eigenvalues --    1.75035   1.77651   1.79981   1.80119   1.80504
  Beta virt. eigenvalues --    1.82319   1.83453   1.84588   1.86576   1.87188
  Beta virt. eigenvalues --    1.87211   1.88027   1.89029   1.90168   1.91448
  Beta virt. eigenvalues --    1.92462   1.93890   1.95144   1.95902   1.96809
  Beta virt. eigenvalues --    1.97181   1.98176   1.98184   1.99050   1.99381
  Beta virt. eigenvalues --    2.00152   2.00258   2.01056   2.01083   2.02343
  Beta virt. eigenvalues --    2.03825   2.05563   2.08443   2.09108   2.10878
  Beta virt. eigenvalues --    2.13555   2.13907   2.14561   2.15202   2.15695
  Beta virt. eigenvalues --    2.16670   2.16822   2.18259   2.18433   2.19110
  Beta virt. eigenvalues --    2.19507   2.20580   2.21268   2.21864   2.23745
  Beta virt. eigenvalues --    2.24667   2.25137   2.25237   2.27109   2.27503
  Beta virt. eigenvalues --    2.28006   2.28015   2.28165   2.28167   2.28585
  Beta virt. eigenvalues --    2.29684   2.32839   2.36671   2.36948   2.40379
  Beta virt. eigenvalues --    2.40815   2.40987   2.43768   2.44777   2.46778
  Beta virt. eigenvalues --    2.47483   2.49261   2.51055   2.52982   2.57147
  Beta virt. eigenvalues --    2.58337   2.58508   2.58899   2.59222   2.61225
  Beta virt. eigenvalues --    2.63560   2.63760   2.65979   2.67098   2.68090
  Beta virt. eigenvalues --    2.69285   2.71043   2.72259   2.72498   2.73374
  Beta virt. eigenvalues --    2.75547   2.76219   2.76287   2.76951   2.78252
  Beta virt. eigenvalues --    2.78803   2.83879   2.86849   2.87560   2.89396
  Beta virt. eigenvalues --    2.90250   2.93680   2.95803   2.96580   2.97689
  Beta virt. eigenvalues --    3.00559   3.03397   3.06555   3.08738   3.16337
  Beta virt. eigenvalues --    3.19901   3.20628   3.26668   3.41273   3.43226
  Beta virt. eigenvalues --    3.46883   3.49668   3.52651   3.62167   5.61191
  Beta virt. eigenvalues --    5.62958   5.63008   5.64523   5.64631   5.67190
  Beta virt. eigenvalues --    5.69053  45.79860  46.00913  46.01782  63.06470
          Condensed to atoms (all electrons):
               1          2          3          4          5          6
     1  C    5.250456   0.491633  -0.073851  -0.043921  -0.073851   0.491632
     2  C    0.491633   4.625984   0.538104  -0.001503  -0.040433  -0.014249
     3  C   -0.073851   0.538104   5.031756   0.521015  -0.043854  -0.040433
     4  C   -0.043921  -0.001503   0.521015   4.907311   0.521013  -0.001503
     5  C   -0.073851  -0.040433  -0.043854   0.521013   5.031758   0.538105
     6  C    0.491632  -0.014249  -0.040433  -0.001503   0.538105   4.625982
     7  H    0.004709  -0.036977   0.351442  -0.039836   0.004234   0.000427
     8  H    0.001115   0.002507  -0.035443   0.366428  -0.035443   0.002507
     9  H    0.004708   0.000427   0.004234  -0.039836   0.351442  -0.036977
    10  C    0.007792   0.000002   0.000001   0.000119  -0.006378  -0.043248
    11  C    0.017273   0.003378  -0.000122   0.000039   0.003308  -0.072223
    12  C   -0.000879  -0.000001   0.000000  -0.000000   0.000131   0.007453
    13  C    0.000162   0.000003  -0.000002   0.000070   0.001662  -0.004944
    14  C   -0.000001  -0.000000   0.000000  -0.000000   0.000002  -0.000026
    15  C    0.000002  -0.000000   0.000000  -0.000001   0.000081   0.000069
    16  H   -0.000036   0.000001   0.000000   0.000121  -0.000072   0.000567
    17  C    0.000000   0.000000  -0.000000   0.000000  -0.000001  -0.000004
    18  H   -0.000000   0.000000   0.000000   0.000000  -0.000000   0.000002
    19  H   -0.000000   0.000000  -0.000000   0.000000   0.000002  -0.000002
    20  H   -0.000000  -0.000000   0.000000  -0.000000  -0.000000  -0.000000
    21  C    0.007792  -0.043248  -0.006378   0.000119   0.000001   0.000002
    22  C    0.017273  -0.072224   0.003308   0.000039  -0.000122   0.003378
    23  C   -0.000879   0.007453   0.000131  -0.000000   0.000000  -0.000001
    24  C    0.000162  -0.004944   0.001661   0.000070  -0.000002   0.000003
    25  C   -0.000001  -0.000026   0.000002  -0.000000   0.000000  -0.000000
    26  C    0.000002   0.000069   0.000081  -0.000001   0.000000  -0.000000
    27  H   -0.000036   0.000567  -0.000072   0.000121   0.000000   0.000001
    28  C    0.000000  -0.000004  -0.000001   0.000000  -0.000000   0.000000
    29  H   -0.000000   0.000002  -0.000000   0.000000   0.000000   0.000000
    30  H   -0.000000  -0.000002   0.000002   0.000000  -0.000000   0.000000
    31  H   -0.000000  -0.000000  -0.000000  -0.000000   0.000000  -0.000000
    32  N   -0.034058   0.258369  -0.065033   0.003964   0.000827   0.006999
    33  N    0.001251   0.006475  -0.000157   0.000001   0.000000  -0.000050
    34  N   -0.034058   0.006999   0.000827   0.003964  -0.065033   0.258369
    35  N    0.001251  -0.000050   0.000000   0.000001  -0.000157   0.006475
    36  C   -0.000017   0.000000  -0.000000  -0.000000   0.000002  -0.000054
    37  H   -0.000000  -0.000000   0.000000   0.000000  -0.000000   0.000004
    38  H   -0.000000  -0.000000   0.000000   0.000000  -0.000000   0.000004
    39  H   -0.000022   0.000001   0.000000  -0.000000  -0.000000  -0.000015
    40  C   -0.000017  -0.000054   0.000002  -0.000000  -0.000000   0.000000
    41  H   -0.000000   0.000004  -0.000000   0.000000   0.000000  -0.000000
    42  H   -0.000000   0.000004  -0.000000   0.000000   0.000000  -0.000000
    43  H   -0.000022  -0.000015  -0.000000  -0.000000   0.000000   0.000001
    44  Co   0.266964  -0.071056   0.003183   0.002668   0.003183  -0.071056
               7          8          9         10         11         12
     1  C    0.004709   0.001115   0.004708   0.007792   0.017273  -0.000879
     2  C   -0.036977   0.002507   0.000427   0.000002   0.003378  -0.000001
     3  C    0.351442  -0.035443   0.004234   0.000001  -0.000122   0.000000
     4  C   -0.039836   0.366428  -0.039836   0.000119   0.000039  -0.000000
     5  C    0.004234  -0.035443   0.351442  -0.006378   0.003308   0.000131
     6  C    0.000427   0.002507  -0.036977  -0.043248  -0.072223   0.007453
     7  H    0.546962  -0.004328  -0.000122  -0.000000  -0.000000   0.000000
     8  H   -0.004328   0.540651  -0.004328  -0.000002   0.000001  -0.000000
     9  H   -0.000122  -0.004328   0.546961   0.000296  -0.000151  -0.000032
    10  C   -0.000000  -0.000002   0.000296   4.641107  -0.073058   0.519422
    11  C   -0.000000   0.000001  -0.000151  -0.073058   4.822647  -0.056762
    12  C    0.000000  -0.000000  -0.000032   0.519422  -0.056762   4.655204
    13  C   -0.000000   0.000003   0.000141   0.533299   0.004933  -0.056495
    14  C   -0.000000   0.000000   0.000000  -0.048931   0.005767   0.531271
    15  C   -0.000000   0.000000   0.000128  -0.006541  -0.000084  -0.038292
    16  H   -0.000000  -0.000010   0.006239  -0.034610  -0.000152   0.003728
    17  C    0.000000  -0.000000   0.000001  -0.039712  -0.000084  -0.007792
    18  H    0.000000  -0.000000  -0.000000   0.003896  -0.000214  -0.038412
    19  H    0.000000   0.000000  -0.000009   0.002012   0.000003   0.000948
    20  H   -0.000000  -0.000000   0.000000   0.000910   0.000003   0.002256
    21  C    0.000296  -0.000002  -0.000000  -0.000000  -0.000009   0.000000
    22  C   -0.000151   0.000001  -0.000000  -0.000009  -0.017662  -0.000003
    23  C   -0.000032  -0.000000   0.000000   0.000000  -0.000003  -0.000000
    24  C    0.000141   0.000003  -0.000000   0.000000   0.000000  -0.000000
    25  C    0.000000   0.000000  -0.000000   0.000000   0.000000   0.000000
    26  C    0.000128   0.000000  -0.000000  -0.000000  -0.000000  -0.000000
    27  H    0.006239  -0.000010  -0.000000   0.000000   0.000000  -0.000000
    28  C    0.000001  -0.000000   0.000000   0.000000  -0.000000  -0.000000
    29  H   -0.000000  -0.000000   0.000000   0.000000   0.000000  -0.000000
    30  H   -0.000009   0.000000   0.000000   0.000000   0.000000   0.000000
    31  H    0.000000  -0.000000  -0.000000   0.000000   0.000000   0.000000
    32  N   -0.004559  -0.000099   0.000007   0.000000   0.000387   0.000000
    33  N    0.000002  -0.000000  -0.000000  -0.000000   0.000024   0.000000
    34  N    0.000007  -0.000099  -0.004559   0.264207   0.352425  -0.040665
    35  N   -0.000000  -0.000000   0.000002  -0.044279   0.315655   0.275135
    36  C   -0.000000   0.000000  -0.000000   0.005876  -0.043147  -0.048004
    37  H    0.000000  -0.000000  -0.000000  -0.000145   0.000679  -0.001383
    38  H    0.000000  -0.000000  -0.000000  -0.000145   0.000674  -0.001380
    39  H    0.000000   0.000000   0.000000   0.000018  -0.000285   0.002656
    40  C   -0.000000   0.000000  -0.000000   0.000000   0.000019   0.000000
    41  H   -0.000000  -0.000000   0.000000  -0.000000  -0.000000  -0.000000
    42  H   -0.000000  -0.000000   0.000000  -0.000000  -0.000000  -0.000000
    43  H    0.000000   0.000000   0.000000   0.000000  -0.000001  -0.000000
    44  Co  -0.000484   0.000189  -0.000484   0.007732   0.364148   0.005095
              13         14         15         16         17         18
     1  C    0.000162  -0.000001   0.000002  -0.000036   0.000000  -0.000000
     2  C    0.000003  -0.000000  -0.000000   0.000001   0.000000   0.000000
     3  C   -0.000002   0.000000   0.000000   0.000000  -0.000000   0.000000
     4  C    0.000070  -0.000000  -0.000001   0.000121   0.000000   0.000000
     5  C    0.001662   0.000002   0.000081  -0.000072  -0.000001  -0.000000
     6  C   -0.004944  -0.000026   0.000069   0.000567  -0.000004   0.000002
     7  H   -0.000000  -0.000000  -0.000000  -0.000000   0.000000   0.000000
     8  H    0.000003   0.000000   0.000000  -0.000010  -0.000000  -0.000000
     9  H    0.000141   0.000000   0.000128   0.006239   0.000001  -0.000000
    10  C    0.533299  -0.048931  -0.006541  -0.034610  -0.039712   0.003896
    11  C    0.004933   0.005767  -0.000084  -0.000152  -0.000084  -0.000214
    12  C   -0.056495   0.531271  -0.038292   0.003728  -0.007792  -0.038412
    13  C    5.022816  -0.043912   0.512514   0.356275  -0.035782   0.000269
    14  C   -0.043912   5.030077  -0.038801   0.000448   0.518628   0.362720
    15  C    0.512514  -0.038801   4.900537  -0.036574   0.555131   0.003979
    16  H    0.356275   0.000448  -0.036574   0.519282   0.003747   0.000014
    17  C   -0.035782   0.518628   0.555131   0.003747   4.890103  -0.036153
    18  H    0.000269   0.362720   0.003979   0.000014  -0.036153   0.536893
    19  H   -0.036340   0.004046   0.368677  -0.004171  -0.036156  -0.000150
    20  H    0.003960  -0.037111  -0.035917  -0.000148   0.368207  -0.004257
    21  C    0.000000   0.000000  -0.000000   0.000000   0.000000   0.000000
    22  C    0.000000   0.000000  -0.000000   0.000000  -0.000000   0.000000
    23  C   -0.000000   0.000000  -0.000000  -0.000000  -0.000000  -0.000000
    24  C    0.000000   0.000000  -0.000000   0.000000   0.000000   0.000000
    25  C    0.000000  -0.000000   0.000000  -0.000000  -0.000000   0.000000
    26  C   -0.000000   0.000000  -0.000000   0.000000   0.000000   0.000000
    27  H    0.000000  -0.000000   0.000000   0.000000   0.000000  -0.000000
    28  C    0.000000  -0.000000   0.000000   0.000000   0.000000   0.000000
    29  H    0.000000   0.000000   0.000000  -0.000000   0.000000  -0.000000
    30  H   -0.000000  -0.000000   0.000000  -0.000000   0.000000   0.000000
    31  H   -0.000000   0.000000   0.000000  -0.000000   0.000000   0.000000
    32  N   -0.000000   0.000000   0.000000   0.000000   0.000000  -0.000000
    33  N    0.000000  -0.000000   0.000000   0.000000   0.000000  -0.000000
    34  N   -0.076119   0.008966   0.005132  -0.004756  -0.000186  -0.000090
    35  N    0.009412  -0.083393  -0.000141  -0.000097   0.005394  -0.007073
    36  C   -0.000119  -0.002897   0.000009   0.000003  -0.000117   0.004062
    37  H   -0.000009   0.002782  -0.000002  -0.000000  -0.000006   0.000542
    38  H   -0.000009   0.002780  -0.000002  -0.000000  -0.000006   0.000541
    39  H    0.000006   0.000031  -0.000000  -0.000000   0.000001  -0.000035
    40  C    0.000000   0.000000  -0.000000   0.000000   0.000000  -0.000000
    41  H    0.000000   0.000000  -0.000000   0.000000  -0.000000  -0.000000
    42  H    0.000000   0.000000  -0.000000   0.000000  -0.000000  -0.000000
    43  H    0.000000   0.000000  -0.000000   0.000000  -0.000000   0.000000
    44  Co  -0.000532  -0.000426  -0.000003   0.000053   0.000002   0.000009
              19         20         21         22         23         24
     1  C   -0.000000  -0.000000   0.007792   0.017273  -0.000879   0.000162
     2  C    0.000000  -0.000000  -0.043248  -0.072224   0.007453  -0.004944
     3  C   -0.000000   0.000000  -0.006378   0.003308   0.000131   0.001661
     4  C    0.000000  -0.000000   0.000119   0.000039  -0.000000   0.000070
     5  C    0.000002  -0.000000   0.000001  -0.000122   0.000000  -0.000002
     6  C   -0.000002  -0.000000   0.000002   0.003378  -0.000001   0.000003
     7  H    0.000000  -0.000000   0.000296  -0.000151  -0.000032   0.000141
     8  H    0.000000  -0.000000  -0.000002   0.000001  -0.000000   0.000003
     9  H   -0.000009   0.000000  -0.000000  -0.000000   0.000000  -0.000000
    10  C    0.002012   0.000910  -0.000000  -0.000009   0.000000   0.000000
    11  C    0.000003   0.000003  -0.000009  -0.017662  -0.000003   0.000000
    12  C    0.000948   0.002256   0.000000  -0.000003  -0.000000  -0.000000
    13  C   -0.036340   0.003960   0.000000   0.000000  -0.000000   0.000000
    14  C    0.004046  -0.037111   0.000000   0.000000   0.000000   0.000000
    15  C    0.368677  -0.035917  -0.000000  -0.000000  -0.000000  -0.000000
    16  H   -0.004171  -0.000148   0.000000   0.000000  -0.000000   0.000000
    17  C   -0.036156   0.368207   0.000000  -0.000000  -0.000000   0.000000
    18  H   -0.000150  -0.004257   0.000000   0.000000  -0.000000   0.000000
    19  H    0.536092  -0.004582   0.000000   0.000000   0.000000  -0.000000
    20  H   -0.004582   0.537871   0.000000   0.000000   0.000000  -0.000000
    21  C    0.000000   0.000000   4.641117  -0.073059   0.519421   0.533298
    22  C    0.000000   0.000000  -0.073059   4.822642  -0.056762   0.004933
    23  C    0.000000   0.000000   0.519421  -0.056762   4.655197  -0.056495
    24  C   -0.000000  -0.000000   0.533298   0.004933  -0.056495   5.022808
    25  C   -0.000000   0.000000  -0.048931   0.005767   0.531272  -0.043912
    26  C    0.000000   0.000000  -0.006540  -0.000084  -0.038292   0.512517
    27  H   -0.000000  -0.000000  -0.034611  -0.000152   0.003728   0.356276
    28  C    0.000000   0.000000  -0.039712  -0.000084  -0.007792  -0.035782
    29  H    0.000000   0.000000   0.003896  -0.000214  -0.038412   0.000270
    30  H    0.000000   0.000000   0.002012   0.000003   0.000948  -0.036340
    31  H    0.000000   0.000000   0.000910   0.000003   0.002256   0.003960
    32  N   -0.000000   0.000000   0.264208   0.352425  -0.040666  -0.076118
    33  N   -0.000000  -0.000000  -0.044279   0.315657   0.275134   0.009412
    34  N   -0.000090   0.000004   0.000000   0.000387   0.000000  -0.000000
    35  N    0.000004  -0.000098  -0.000000   0.000024   0.000000   0.000000
    36  C   -0.000000  -0.000002   0.000000   0.000019   0.000000   0.000000
    37  H   -0.000000  -0.000000  -0.000000  -0.000000  -0.000000   0.000000
    38  H   -0.000000  -0.000000  -0.000000  -0.000000  -0.000000   0.000000
    39  H   -0.000000  -0.000000   0.000000  -0.000001  -0.000000   0.000000
    40  C    0.000000  -0.000000   0.005876  -0.043147  -0.048004  -0.000119
    41  H   -0.000000   0.000000  -0.000145   0.000675  -0.001380  -0.000009
    42  H   -0.000000   0.000000  -0.000145   0.000678  -0.001384  -0.000009
    43  H    0.000000   0.000000   0.000018  -0.000285   0.002656   0.000006
    44  Co   0.000017  -0.000005   0.007732   0.364148   0.005096  -0.000532
              25         26         27         28         29         30
     1  C   -0.000001   0.000002  -0.000036   0.000000  -0.000000  -0.000000
     2  C   -0.000026   0.000069   0.000567  -0.000004   0.000002  -0.000002
     3  C    0.000002   0.000081  -0.000072  -0.000001  -0.000000   0.000002
     4  C   -0.000000  -0.000001   0.000121   0.000000   0.000000   0.000000
     5  C    0.000000   0.000000   0.000000  -0.000000   0.000000  -0.000000
     6  C   -0.000000  -0.000000   0.000001   0.000000   0.000000   0.000000
     7  H    0.000000   0.000128   0.006239   0.000001  -0.000000  -0.000009
     8  H    0.000000   0.000000  -0.000010  -0.000000  -0.000000   0.000000
     9  H   -0.000000  -0.000000  -0.000000   0.000000   0.000000   0.000000
    10  C    0.000000  -0.000000   0.000000   0.000000   0.000000   0.000000
    11  C    0.000000  -0.000000   0.000000  -0.000000   0.000000   0.000000
    12  C    0.000000  -0.000000  -0.000000  -0.000000  -0.000000   0.000000
    13  C    0.000000  -0.000000   0.000000   0.000000   0.000000  -0.000000
    14  C   -0.000000   0.000000  -0.000000  -0.000000   0.000000  -0.000000
    15  C    0.000000  -0.000000   0.000000   0.000000   0.000000   0.000000
    16  H   -0.000000   0.000000   0.000000   0.000000  -0.000000  -0.000000
    17  C   -0.000000   0.000000   0.000000   0.000000   0.000000   0.000000
    18  H    0.000000   0.000000  -0.000000   0.000000  -0.000000   0.000000
    19  H   -0.000000   0.000000  -0.000000   0.000000   0.000000   0.000000
    20  H    0.000000   0.000000  -0.000000   0.000000   0.000000   0.000000
    21  C   -0.048931  -0.006540  -0.034611  -0.039712   0.003896   0.002012
    22  C    0.005767  -0.000084  -0.000152  -0.000084  -0.000214   0.000003
    23  C    0.531272  -0.038292   0.003728  -0.007792  -0.038412   0.000948
    24  C   -0.043912   0.512517   0.356276  -0.035782   0.000270  -0.036340
    25  C    5.030083  -0.038800   0.000448   0.518626   0.362719   0.004046
    26  C   -0.038800   4.900538  -0.036574   0.555130   0.003979   0.368676
    27  H    0.000448  -0.036574   0.519281   0.003747   0.000014  -0.004171
    28  C    0.518626   0.555130   0.003747   4.890103  -0.036153  -0.036156
    29  H    0.362719   0.003979   0.000014  -0.036153   0.536894  -0.000150
    30  H    0.004046   0.368676  -0.004171  -0.036156  -0.000150   0.536093
    31  H   -0.037110  -0.035917  -0.000148   0.368208  -0.004257  -0.004582
    32  N    0.008966   0.005132  -0.004755  -0.000186  -0.000090  -0.000090
    33  N   -0.083395  -0.000141  -0.000097   0.005394  -0.007073   0.000004
    34  N    0.000000   0.000000   0.000000   0.000000  -0.000000  -0.000000
    35  N   -0.000000   0.000000   0.000000   0.000000  -0.000000  -0.000000
    36  C    0.000000  -0.000000   0.000000   0.000000  -0.000000   0.000000
    37  H    0.000000  -0.000000   0.000000  -0.000000  -0.000000  -0.000000
    38  H    0.000000  -0.000000   0.000000  -0.000000  -0.000000  -0.000000
    39  H    0.000000  -0.000000   0.000000  -0.000000   0.000000   0.000000
    40  C   -0.002897   0.000009   0.000003  -0.000117   0.004062  -0.000000
    41  H    0.002780  -0.000002  -0.000000  -0.000006   0.000541  -0.000000
    42  H    0.002782  -0.000002  -0.000000  -0.000006   0.000542  -0.000000
    43  H    0.000031  -0.000000  -0.000000   0.000001  -0.000035  -0.000000
    44  Co  -0.000426  -0.000003   0.000053   0.000002   0.000009   0.000017
              31         32         33         34         35         36
     1  C   -0.000000  -0.034058   0.001251  -0.034058   0.001251  -0.000017
     2  C   -0.000000   0.258369   0.006475   0.006999  -0.000050   0.000000
     3  C   -0.000000  -0.065033  -0.000157   0.000827   0.000000  -0.000000
     4  C   -0.000000   0.003964   0.000001   0.003964   0.000001  -0.000000
     5  C    0.000000   0.000827   0.000000  -0.065033  -0.000157   0.000002
     6  C   -0.000000   0.006999  -0.000050   0.258369   0.006475  -0.000054
     7  H    0.000000  -0.004559   0.000002   0.000007  -0.000000  -0.000000
     8  H   -0.000000  -0.000099  -0.000000  -0.000099  -0.000000   0.000000
     9  H   -0.000000   0.000007  -0.000000  -0.004559   0.000002  -0.000000
    10  C    0.000000   0.000000  -0.000000   0.264207  -0.044279   0.005876
    11  C    0.000000   0.000387   0.000024   0.352425   0.315655  -0.043147
    12  C    0.000000   0.000000   0.000000  -0.040665   0.275135  -0.048004
    13  C   -0.000000  -0.000000   0.000000  -0.076119   0.009412  -0.000119
    14  C    0.000000   0.000000  -0.000000   0.008966  -0.083393  -0.002897
    15  C    0.000000   0.000000   0.000000   0.005132  -0.000141   0.000009
    16  H   -0.000000   0.000000   0.000000  -0.004756  -0.000097   0.000003
    17  C    0.000000   0.000000   0.000000  -0.000186   0.005394  -0.000117
    18  H    0.000000  -0.000000  -0.000000  -0.000090  -0.007073   0.004062
    19  H    0.000000  -0.000000  -0.000000  -0.000090   0.000004  -0.000000
    20  H    0.000000   0.000000  -0.000000   0.000004  -0.000098  -0.000002
    21  C    0.000910   0.264208  -0.044279   0.000000  -0.000000   0.000000
    22  C    0.000003   0.352425   0.315657   0.000387   0.000024   0.000019
    23  C    0.002256  -0.040666   0.275134   0.000000   0.000000   0.000000
    24  C    0.003960  -0.076118   0.009412  -0.000000   0.000000   0.000000
    25  C   -0.037110   0.008966  -0.083395   0.000000  -0.000000   0.000000
    26  C   -0.035917   0.005132  -0.000141   0.000000   0.000000  -0.000000
    27  H   -0.000148  -0.004755  -0.000097   0.000000   0.000000   0.000000
    28  C    0.368208  -0.000186   0.005394   0.000000   0.000000   0.000000
    29  H   -0.004257  -0.000090  -0.007073  -0.000000  -0.000000  -0.000000
    30  H   -0.004582  -0.000090   0.000004  -0.000000  -0.000000   0.000000
    31  H    0.537868   0.000004  -0.000098   0.000000  -0.000000  -0.000000
    32  N    0.000004   7.180501  -0.060603  -0.000198   0.000001  -0.000000
    33  N   -0.000098  -0.060603   7.057030   0.000001  -0.000000  -0.000000
    34  N    0.000000  -0.000198   0.000001   7.180506  -0.060603   0.004914
    35  N   -0.000000   0.000001  -0.000000  -0.060603   7.057028   0.298264
    36  C   -0.000000  -0.000000  -0.000000   0.004914   0.298264   5.048666
    37  H    0.000000   0.000000  -0.000000  -0.000067  -0.042286   0.378020
    38  H    0.000000   0.000000  -0.000000  -0.000067  -0.042292   0.378026
    39  H    0.000000  -0.000000   0.000001   0.000139  -0.032604   0.377530
    40  C   -0.000002   0.004914   0.298263  -0.000000  -0.000000   0.000000
    41  H   -0.000000  -0.000067  -0.042291   0.000000  -0.000000  -0.000000
    42  H   -0.000000  -0.000067  -0.042285   0.000000  -0.000000  -0.000000
    43  H   -0.000000   0.000139  -0.032604  -0.000000   0.000001  -0.000001
    44  Co  -0.000005  -0.084072  -0.052743  -0.084072  -0.052743  -0.002972
              37         38         39         40         41         42
     1  C   -0.000000  -0.000000  -0.000022  -0.000017  -0.000000  -0.000000
     2  C   -0.000000  -0.000000   0.000001  -0.000054   0.000004   0.000004
     3  C    0.000000   0.000000   0.000000   0.000002  -0.000000  -0.000000
     4  C    0.000000   0.000000  -0.000000  -0.000000   0.000000   0.000000
     5  C   -0.000000  -0.000000  -0.000000  -0.000000   0.000000   0.000000
     6  C    0.000004   0.000004  -0.000015   0.000000  -0.000000  -0.000000
     7  H    0.000000   0.000000   0.000000  -0.000000  -0.000000  -0.000000
     8  H   -0.000000  -0.000000   0.000000   0.000000  -0.000000  -0.000000
     9  H   -0.000000  -0.000000   0.000000  -0.000000   0.000000   0.000000
    10  C   -0.000145  -0.000145   0.000018   0.000000  -0.000000  -0.000000
    11  C    0.000679   0.000674  -0.000285   0.000019  -0.000000  -0.000000
    12  C   -0.001383  -0.001380   0.002656   0.000000  -0.000000  -0.000000
    13  C   -0.000009  -0.000009   0.000006   0.000000   0.000000   0.000000
    14  C    0.002782   0.002780   0.000031   0.000000   0.000000   0.000000
    15  C   -0.000002  -0.000002  -0.000000  -0.000000  -0.000000  -0.000000
    16  H   -0.000000  -0.000000  -0.000000   0.000000   0.000000   0.000000
    17  C   -0.000006  -0.000006   0.000001   0.000000  -0.000000  -0.000000
    18  H    0.000542   0.000541  -0.000035  -0.000000  -0.000000  -0.000000
    19  H   -0.000000  -0.000000  -0.000000   0.000000  -0.000000  -0.000000
    20  H   -0.000000  -0.000000  -0.000000  -0.000000   0.000000   0.000000
    21  C   -0.000000  -0.000000   0.000000   0.005876  -0.000145  -0.000145
    22  C   -0.000000  -0.000000  -0.000001  -0.043147   0.000675   0.000678
    23  C   -0.000000  -0.000000  -0.000000  -0.048004  -0.001380  -0.001384
    24  C    0.000000   0.000000   0.000000  -0.000119  -0.000009  -0.000009
    25  C    0.000000   0.000000   0.000000  -0.002897   0.002780   0.002782
    26  C   -0.000000  -0.000000  -0.000000   0.000009  -0.000002  -0.000002
    27  H    0.000000   0.000000   0.000000   0.000003  -0.000000  -0.000000
    28  C   -0.000000  -0.000000  -0.000000  -0.000117  -0.000006  -0.000006
    29  H   -0.000000  -0.000000   0.000000   0.004062   0.000541   0.000542
    30  H   -0.000000  -0.000000   0.000000  -0.000000  -0.000000  -0.000000
    31  H    0.000000   0.000000   0.000000  -0.000002  -0.000000  -0.000000
    32  N    0.000000   0.000000  -0.000000   0.004914  -0.000067  -0.000067
    33  N   -0.000000  -0.000000   0.000001   0.298263  -0.042291  -0.042285
    34  N   -0.000067  -0.000067   0.000139  -0.000000   0.000000   0.000000
    35  N   -0.042286  -0.042292  -0.032604  -0.000000  -0.000000  -0.000000
    36  C    0.378020   0.378026   0.377530   0.000000  -0.000000  -0.000000
    37  H    0.524406  -0.040642  -0.025004  -0.000000  -0.000000   0.000000
    38  H   -0.040642   0.524412  -0.025014  -0.000000   0.000000  -0.000000
    39  H   -0.025004  -0.025014   0.481180  -0.000001   0.000000   0.000000
    40  C   -0.000000  -0.000000  -0.000001   5.048667   0.378026   0.378020
    41  H   -0.000000   0.000000   0.000000   0.378026   0.524409  -0.040641
    42  H    0.000000  -0.000000   0.000000   0.378020  -0.040641   0.524404
    43  H    0.000000   0.000000  -0.000024   0.377530  -0.025014  -0.025004
    44  Co   0.000998   0.001001   0.007132  -0.002972   0.001001   0.000998
              43         44
     1  C   -0.000022   0.266964
     2  C   -0.000015  -0.071056
     3  C   -0.000000   0.003183
     4  C   -0.000000   0.002668
     5  C    0.000000   0.003183
     6  C    0.000001  -0.071056
     7  H    0.000000  -0.000484
     8  H    0.000000   0.000189
     9  H    0.000000  -0.000484
    10  C    0.000000   0.007732
    11  C   -0.000001   0.364148
    12  C   -0.000000   0.005095
    13  C    0.000000  -0.000532
    14  C    0.000000  -0.000426
    15  C   -0.000000  -0.000003
    16  H    0.000000   0.000053
    17  C   -0.000000   0.000002
    18  H    0.000000   0.000009
    19  H    0.000000   0.000017
    20  H    0.000000  -0.000005
    21  C    0.000018   0.007732
    22  C   -0.000285   0.364148
    23  C    0.002656   0.005096
    24  C    0.000006  -0.000532
    25  C    0.000031  -0.000426
    26  C   -0.000000  -0.000003
    27  H   -0.000000   0.000053
    28  C    0.000001   0.000002
    29  H   -0.000035   0.000009
    30  H   -0.000000   0.000017
    31  H   -0.000000  -0.000005
    32  N    0.000139  -0.084072
    33  N   -0.032604  -0.052743
    34  N   -0.000000  -0.084072
    35  N    0.000001  -0.052743
    36  C   -0.000001  -0.002972
    37  H    0.000000   0.000998
    38  H    0.000000   0.001001
    39  H   -0.000024   0.007132
    40  C    0.377530  -0.002972
    41  H   -0.025014   0.001001
    42  H   -0.025004   0.000998
    43  H    0.481180   0.007132
    44  Co   0.007132  16.278108
          Atomic-Atomic Spin Densities.
               1          2          3          4          5          6
     1  C   -0.195837  -0.013161   0.003279   0.002462   0.003279  -0.013161
     2  C   -0.013161   0.118560   0.006636  -0.004355   0.000874   0.004075
     3  C    0.003279   0.006636  -0.085579  -0.006542   0.000894   0.000874
     4  C    0.002462  -0.004355  -0.006542   0.146100  -0.006541  -0.004355
     5  C    0.003279   0.000874   0.000894  -0.006541  -0.085580   0.006636
     6  C   -0.013161   0.004075   0.000874  -0.004355   0.006636   0.118558
     7  H   -0.000201  -0.000279   0.002098   0.000291   0.000023  -0.000068
     8  H   -0.000057   0.000018   0.000075  -0.000078   0.000075   0.000018
     9  H   -0.000201  -0.000068   0.000023   0.000291   0.002098  -0.000279
    10  C   -0.000177  -0.000021   0.000001   0.000014   0.000316  -0.000211
    11  C    0.004784  -0.001008  -0.000003   0.000032  -0.000205  -0.006520
    12  C    0.000032   0.000000  -0.000000  -0.000000  -0.000009   0.000048
    13  C    0.000021  -0.000000  -0.000000   0.000007  -0.000209  -0.000356
    14  C    0.000001   0.000000  -0.000000   0.000000  -0.000001  -0.000017
    15  C   -0.000000   0.000000   0.000000  -0.000000   0.000003   0.000010
    16  H   -0.000001  -0.000000  -0.000000   0.000001   0.000039   0.000042
    17  C   -0.000000  -0.000000   0.000000  -0.000000   0.000000   0.000001
    18  H    0.000000   0.000000  -0.000000   0.000000   0.000000   0.000000
    19  H    0.000000   0.000000  -0.000000  -0.000000  -0.000000   0.000000
    20  H    0.000000   0.000000  -0.000000  -0.000000  -0.000000  -0.000000
    21  C   -0.000177  -0.000211   0.000316   0.000014   0.000001  -0.000021
    22  C    0.004784  -0.006520  -0.000205   0.000032  -0.000003  -0.001008
    23  C    0.000032   0.000048  -0.000009  -0.000000  -0.000000   0.000000
    24  C    0.000021  -0.000356  -0.000209   0.000007  -0.000000  -0.000000
    25  C    0.000001  -0.000017  -0.000001   0.000000  -0.000000   0.000000
    26  C   -0.000000   0.000010   0.000003  -0.000000   0.000000   0.000000
    27  H   -0.000001   0.000042   0.000039   0.000001  -0.000000  -0.000000
    28  C   -0.000000   0.000001   0.000000  -0.000000   0.000000  -0.000000
    29  H    0.000000   0.000000   0.000000   0.000000  -0.000000   0.000000
    30  H    0.000000   0.000000  -0.000000  -0.000000  -0.000000   0.000000
    31  H    0.000000  -0.000000  -0.000000  -0.000000  -0.000000   0.000000
    32  N    0.000295   0.011992   0.002711  -0.000009   0.000022  -0.000037
    33  N   -0.000541   0.000398  -0.000008  -0.000000  -0.000000   0.000004
    34  N    0.000295  -0.000037   0.000022  -0.000009   0.002711   0.011993
    35  N   -0.000541   0.000004  -0.000000  -0.000000  -0.000008   0.000398
    36  C   -0.000010   0.000000  -0.000000  -0.000000  -0.000000  -0.000006
    37  H    0.000001  -0.000000  -0.000000   0.000000  -0.000000  -0.000001
    38  H    0.000001  -0.000000  -0.000000   0.000000  -0.000000  -0.000001
    39  H    0.000010   0.000000   0.000000   0.000000   0.000000   0.000000
    40  C   -0.000010  -0.000006  -0.000000  -0.000000  -0.000000   0.000000
    41  H    0.000001  -0.000001  -0.000000   0.000000  -0.000000  -0.000000
    42  H    0.000001  -0.000001  -0.000000   0.000000  -0.000000  -0.000000
    43  H    0.000010   0.000000   0.000000   0.000000   0.000000   0.000000
    44  Co   0.032465  -0.012397  -0.001664   0.001677  -0.001663  -0.012396
               7          8          9         10         11         12
     1  C   -0.000201  -0.000057  -0.000201  -0.000177   0.004784   0.000032
     2  C   -0.000279   0.000018  -0.000068  -0.000021  -0.001008   0.000000
     3  C    0.002098   0.000075   0.000023   0.000001  -0.000003  -0.000000
     4  C    0.000291  -0.000078   0.000291   0.000014   0.000032  -0.000000
     5  C    0.000023   0.000075   0.002098   0.000316  -0.000205  -0.000009
     6  C   -0.000068   0.000018  -0.000279  -0.000211  -0.006520   0.000048
     7  H   -0.000799   0.000001  -0.000008  -0.000000   0.000000   0.000000
     8  H    0.000001  -0.006776   0.000001  -0.000000   0.000000   0.000000
     9  H   -0.000008   0.000001  -0.000799  -0.000052   0.000012   0.000001
    10  C   -0.000000  -0.000000  -0.000052  -0.006262   0.001403  -0.001937
    11  C    0.000000   0.000000   0.000012   0.001403   0.196257  -0.001356
    12  C    0.000000   0.000000   0.000001  -0.001937  -0.001356  -0.026144
    13  C    0.000000   0.000000   0.000055   0.003934   0.000298   0.000589
    14  C    0.000000   0.000000   0.000000   0.000763   0.000518   0.000413
    15  C    0.000000   0.000000   0.000004  -0.000722  -0.000027   0.000185
    16  H   -0.000000  -0.000000  -0.000098  -0.000144  -0.000001  -0.000006
    17  C   -0.000000  -0.000000  -0.000000   0.000128  -0.000015  -0.000267
    18  H   -0.000000  -0.000000  -0.000000  -0.000009  -0.000002  -0.000062
    19  H   -0.000000  -0.000000  -0.000000   0.000003  -0.000000  -0.000007
    20  H    0.000000   0.000000   0.000000  -0.000006  -0.000000   0.000013
    21  C   -0.000052  -0.000000  -0.000000  -0.000000   0.000001  -0.000000
    22  C    0.000012   0.000000   0.000000   0.000001   0.001974   0.000000
    23  C    0.000001   0.000000   0.000000  -0.000000   0.000000   0.000000
    24  C    0.000055   0.000000   0.000000   0.000000   0.000000   0.000000
    25  C    0.000000   0.000000   0.000000   0.000000   0.000000   0.000000
    26  C    0.000004   0.000000   0.000000  -0.000000  -0.000000  -0.000000
    27  H   -0.000098  -0.000000  -0.000000  -0.000000   0.000000   0.000000
    28  C   -0.000000  -0.000000  -0.000000  -0.000000  -0.000000   0.000000
    29  H   -0.000000  -0.000000  -0.000000   0.000000  -0.000000  -0.000000
    30  H   -0.000000  -0.000000  -0.000000  -0.000000  -0.000000   0.000000
    31  H    0.000000   0.000000   0.000000   0.000000  -0.000000  -0.000000
    32  N   -0.000248  -0.000000  -0.000001  -0.000000  -0.000043  -0.000000
    33  N    0.000001  -0.000000   0.000000   0.000000  -0.000005   0.000000
    34  N   -0.000001  -0.000000  -0.000248  -0.000427  -0.030793   0.001384
    35  N    0.000000  -0.000000   0.000001  -0.000624  -0.042905   0.005988
    36  C    0.000000   0.000000   0.000000  -0.000035   0.000554   0.000329
    37  H   -0.000000  -0.000000  -0.000000   0.000003   0.000435  -0.000119
    38  H   -0.000000  -0.000000  -0.000000   0.000003   0.000435  -0.000120
    39  H   -0.000000  -0.000000  -0.000000   0.000000  -0.000507  -0.000045
    40  C    0.000000   0.000000   0.000000   0.000000  -0.000001  -0.000000
    41  H   -0.000000  -0.000000  -0.000000   0.000000   0.000000  -0.000000
    42  H   -0.000000  -0.000000  -0.000000   0.000000   0.000000  -0.000000
    43  H   -0.000000  -0.000000  -0.000000  -0.000000   0.000002   0.000000
    44  Co   0.000236   0.000013   0.000236   0.001132   0.060223   0.000190
              13         14         15         16         17         18
     1  C    0.000021   0.000001  -0.000000  -0.000001  -0.000000   0.000000
     2  C   -0.000000   0.000000   0.000000  -0.000000  -0.000000   0.000000
     3  C   -0.000000  -0.000000   0.000000  -0.000000   0.000000  -0.000000
     4  C    0.000007   0.000000  -0.000000   0.000001  -0.000000   0.000000
     5  C   -0.000209  -0.000001   0.000003   0.000039   0.000000   0.000000
     6  C   -0.000356  -0.000017   0.000010   0.000042   0.000001   0.000000
     7  H    0.000000   0.000000   0.000000  -0.000000  -0.000000  -0.000000
     8  H    0.000000   0.000000   0.000000  -0.000000  -0.000000  -0.000000
     9  H    0.000055   0.000000   0.000004  -0.000098  -0.000000  -0.000000
    10  C    0.003934   0.000763  -0.000722  -0.000144   0.000128  -0.000009
    11  C    0.000298   0.000518  -0.000027  -0.000001  -0.000015  -0.000002
    12  C    0.000589   0.000413   0.000185  -0.000006  -0.000267  -0.000062
    13  C    0.023594   0.001017  -0.009602   0.000185  -0.001309  -0.000005
    14  C    0.001017   0.049819  -0.002107  -0.000003  -0.007476   0.000064
    15  C   -0.009602  -0.002107   0.027225   0.000003   0.006306  -0.000004
[...]
 
              Baa    -0.0053    -0.718    -0.256    -0.239  0.0000 -0.0000  1.0000
    40 C(13)  Bbb    -0.0032    -0.435    -0.155    -0.145 -0.6519  0.7583  0.0000
              Bcc     0.0086     1.152     0.411     0.384  0.7583  0.6519  0.0000
 
              Baa    -0.0038    -2.032    -0.725    -0.678 -0.0407  0.3514  0.9353
    41 H(1)   Bbb    -0.0024    -1.288    -0.460    -0.430 -0.6746  0.6809 -0.2852
              Bcc     0.0062     3.321     1.185     1.108  0.7371  0.6426 -0.2093
 
              Baa    -0.0038    -2.032    -0.725    -0.678  0.0408 -0.3514  0.9353
    42 H(1)   Bbb    -0.0024    -1.288    -0.460    -0.430 -0.6745  0.6809  0.2853
              Bcc     0.0062     3.320     1.185     1.107  0.7371  0.6426  0.2092
 
              Baa    -0.0070    -3.729    -1.331    -1.244  0.0001 -0.0002  1.0000
    43 H(1)   Bbb    -0.0057    -3.057    -1.091    -1.020  0.7794 -0.6265 -0.0002
              Bcc     0.0127     6.786     2.421     2.263  0.6265  0.7794  0.0001
 
              Baa    -1.5010  -189.539   -67.632   -63.224  1.0000  0.0000  0.0000
    44 Co(59) Bbb     0.3050    38.509    13.741    12.845 -0.0000  1.0000  0.0000
              Bcc     1.1960   151.030    53.891    50.378 -0.0000 -0.0000  1.0000
 

 ---------------------------------------------------------------------------------

   1 Symmetry operations used in ECPInt.
 ECPInt:  NShTT=   11781 NPrTT=   71406 LenC2=    9560 LenP2D=   32143.
 LDataN:  DoStor=T MaxTD1= 7 Len=  274
 Calling FoFJK, ICntrl=      2127 FMM=F ISym2X=0 I1Cent= 0 IOpClX= 1 NMat=1 NMatS=1 NMatT=0.
 -------------------------------------------------------------------
 Center     Atomic                   Forces (Hartrees/Bohr)
 Number     Number              X              Y              Z
 -------------------------------------------------------------------
      1        6           0.000000643    0.006725715    0.000006893
      2        6           0.005440493    0.008670905   -0.000003447
      3        6          -0.000307072   -0.004987635    0.000000374
      4        6           0.000002478   -0.002643515    0.000000312
      5        6           0.000303311   -0.004986941    0.000000391
      6        6          -0.005438252    0.008669880   -0.000003081
      7        1           0.000121320   -0.000152793    0.000000321
      8        1          -0.000000180    0.001429628   -0.000000343
      9        1          -0.000120560   -0.000152392    0.000000213
     10        6          -0.006152281    0.002518814   -0.000000156
     11        6           0.000522038   -0.000806208   -0.000002582
     12        6           0.002865659   -0.002397980    0.000000976
     13        6           0.002296913   -0.001339728   -0.000000743
     14        6          -0.003002440    0.002926354    0.000000598
     15        6          -0.001863199    0.002451402    0.000000497
     16        1          -0.000335130    0.000343231   -0.000000025
     17        6           0.000675230   -0.002566056   -0.000000432
     18        1           0.000541596   -0.001228349   -0.000000077
     19        1          -0.000091623   -0.000235807    0.000000103
     20        1          -0.000252500    0.000234307   -0.000000057
     21        6           0.006148430    0.002521108   -0.000001317
     22        6          -0.000517560   -0.000805534    0.000000178
     23        6          -0.002859850   -0.002390293    0.000000512
     24        6          -0.002289523   -0.001345098   -0.000000369
     25        6           0.002993294    0.002924015    0.000000611
     26        6           0.001854578    0.002453121    0.000000294
     27        1           0.000335111    0.000344750   -0.000000088
     28        6          -0.000665555   -0.002566408   -0.000000393
     29        1          -0.000540472   -0.001226490   -0.000000046
     30        1           0.000093546   -0.000237737    0.000000128
     31        1           0.000248467    0.000233749   -0.000000079
     32        7          -0.013410581   -0.006340418    0.000001951
     33        7           0.002574469    0.004128445    0.000001648
     34        7           0.013406294   -0.006339842   -0.000000020
     35        7          -0.002577561    0.004138646    0.000003377
     36        6           0.001052372   -0.002015269    0.000002960
     37        1          -0.000303915    0.000082804    0.000352407
     38        1          -0.000304937    0.000083812   -0.000355431
     39        1          -0.000048967    0.000066551   -0.000000462
     40        6          -0.001048700   -0.002010610    0.000001395
     41        1           0.000303772    0.000083488   -0.000353682
     42        1           0.000303542    0.000082807    0.000352138
     43        1           0.000048104    0.000066751   -0.000000278
     44       27          -0.000000801   -0.004405177   -0.000005167
 -------------------------------------------------------------------
 Cartesian Forces:  Max     0.013410581 RMS     0.002802230

 GradGradGradGradGradGradGradGradGradGradGradGradGradGradGradGradGradGrad
 Berny optimization.
 Search for a local minimum.
 Step number   1 out of a maximum of    2
 All quantities printed in internal units (Hartrees-Bohrs-Radians)
 Second derivative matrix not updated -- first step.
 ITU=  0
     Eigenvalues ---    0.00052   0.00061   0.00196   0.00238   0.00244
     Eigenvalues ---    0.00370   0.00436   0.00615   0.00618   0.00630
     Eigenvalues ---    0.00670   0.00843   0.00844   0.01295   0.01594
     Eigenvalues ---    0.01823   0.01955   0.02041   0.02545   0.02548
     Eigenvalues ---    0.03040   0.03231   0.04058   0.04156   0.04309
     Eigenvalues ---    0.04500   0.04691   0.05397   0.05513   0.05936
     Eigenvalues ---    0.06267   0.06929   0.06962   0.07042   0.07050
     Eigenvalues ---    0.07063   0.07325   0.07694   0.07765   0.09657
     Eigenvalues ---    0.09807   0.10497   0.10552   0.11462   0.11944
     Eigenvalues ---    0.12019   0.12306   0.12473   0.12793   0.13399
     Eigenvalues ---    0.13430   0.13527   0.13687   0.14857   0.15712
     Eigenvalues ---    0.15728   0.15904   0.19427   0.20275   0.20781
     Eigenvalues ---    0.21538   0.22574   0.23992   0.24657   0.28998
     Eigenvalues ---    0.29927   0.30125   0.30808   0.31466   0.31645
     Eigenvalues ---    0.33089   0.34646   0.36585   0.36926   0.37272
     Eigenvalues ---    0.39400   0.41292   0.43092   0.46138   0.46570
     Eigenvalues ---    0.48693   0.49086   0.49444   0.52803   0.52936
     Eigenvalues ---    0.53368   0.54637   0.55460   0.64730   0.68494
     Eigenvalues ---    0.71813   0.73779   0.74809   0.80771   0.86005
     Eigenvalues ---    0.91176   0.92371   0.92752   0.94268   0.95921
     Eigenvalues ---    0.95934   0.97883   1.04358   1.05908   1.14793
     Eigenvalues ---    1.16280   1.17745   1.18276   1.22119   1.27588
     Eigenvalues ---    1.33229   1.38396   1.38583   1.46507   1.48280
     Eigenvalues ---    1.49803   1.53302   1.54977   1.61553   1.65155
     Eigenvalues ---    1.66508   1.67934   1.74621   1.77122   1.78935
     Eigenvalues ---    1.81103
 Angle between quadratic step and forces=  46.26 degrees.
 Linear search not attempted -- first point.
 B after Tr=     0.000000    0.000237   -0.000003
         Rot=    1.000000   -0.000000   -0.000000   -0.000000 Ang=  -0.00 deg.
 Variable       Old X    -DE/DX   Delta X   Delta X   Delta X     New X
                                 (Linear)    (Quad)   (Total)
    X1        0.00000   0.00000   0.00000   0.00000   0.00000   0.00000
    Y1        1.26925   0.00673   0.00000   0.01368   0.01392   1.28317
    Z1        0.00013   0.00001   0.00000  -0.00001  -0.00001   0.00012
    X2       -2.29872   0.00544   0.00000  -0.00289  -0.00289  -2.30161
    Y2        2.55512   0.00867   0.00000   0.00584   0.00608   2.56120
    Z2        0.00007  -0.00000   0.00000  -0.00001  -0.00001   0.00006
    X3       -2.32542  -0.00031   0.00000  -0.00246  -0.00246  -2.32788
    Y3        5.19745  -0.00499   0.00000  -0.00668  -0.00645   5.19100
    Z3        0.00000   0.00000   0.00000   0.00001   0.00000   0.00000
    X4       -0.00000   0.00000   0.00000  -0.00000  -0.00000  -0.00000
    Y4        6.46062  -0.00264   0.00000  -0.01101  -0.01077   6.44985
    Z4        0.00002   0.00000   0.00000  -0.00000  -0.00000   0.00002
    X5        2.32542   0.00030   0.00000   0.00246   0.00246   2.32788
    Y5        5.19745  -0.00499   0.00000  -0.00668  -0.00644   5.19101
    Z5        0.00010   0.00000   0.00000  -0.00002  -0.00002   0.00007
    X6        2.29873  -0.00544   0.00000   0.00289   0.00289   2.30162
    Y6        2.55513   0.00867   0.00000   0.00584   0.00608   2.56120
    Z6        0.00016  -0.00000   0.00000  -0.00004  -0.00004   0.00012
    X7       -4.06569   0.00012   0.00000  -0.00140  -0.00140  -4.06709
    Y7        6.27890  -0.00015   0.00000  -0.00595  -0.00572   6.27318
    Z7       -0.00009   0.00000   0.00000   0.00003   0.00003  -0.00006
    X8        0.00000  -0.00000   0.00000  -0.00000  -0.00000  -0.00000
    Y8        8.50948   0.00143   0.00000  -0.00698  -0.00674   8.50274
    Z8       -0.00002  -0.00000   0.00000   0.00000   0.00000  -0.00002
    X9        4.06569  -0.00012   0.00000   0.00139   0.00139   4.06709
    Y9        6.27890  -0.00015   0.00000  -0.00595  -0.00571   6.27319
    Z9        0.00010   0.00000   0.00000  -0.00002  -0.00002   0.00007
   X10        6.91418  -0.00615   0.00000   0.00199   0.00199   6.91617
   Y10        1.08625   0.00252   0.00000   0.00244   0.00268   1.08893
   Z10       -0.00004  -0.00000   0.00000  -0.00002  -0.00003  -0.00007
   X11        3.56974   0.00052   0.00000   0.00351   0.00351   3.57325
   Y11       -1.69348  -0.00081   0.00000  -0.00118  -0.00094  -1.69442
   Z11        0.00018  -0.00000   0.00000  -0.00006  -0.00006   0.00011
   X12        7.86396   0.00287   0.00000   0.00193   0.00193   7.86589
   Y12       -1.39635  -0.00240   0.00000   0.00025   0.00049  -1.39586
   Z12       -0.00019   0.00000   0.00000   0.00003   0.00002  -0.00017
   X13        8.54366   0.00230   0.00000   0.00303   0.00303   8.54670
   Y13        3.14462  -0.00134   0.00000   0.00150   0.00174   3.14636
   Z13       -0.00010  -0.00000   0.00000  -0.00003  -0.00004  -0.00013
   X14       10.44635  -0.00300   0.00000  -0.00320  -0.00320  10.44315
   Y14       -1.89526   0.00293   0.00000   0.00300   0.00324  -1.89203
   Z14       -0.00039   0.00000   0.00000   0.00007   0.00007  -0.00032
   X15       11.13969  -0.00186   0.00000  -0.00008  -0.00008  11.13960
   Y15        2.64445   0.00245   0.00000   0.00389   0.00413   2.64858
   Z15       -0.00032   0.00000   0.00000   0.00002   0.00001  -0.00030
   X16        7.85944  -0.00034   0.00000   0.00002   0.00002   7.85946
   Y16        5.07183   0.00034   0.00000   0.00173   0.00196   5.07380
   Z16        0.00003  -0.00000   0.00000  -0.00007  -0.00008  -0.00005
   X17       12.07358   0.00068   0.00000  -0.00100  -0.00100  12.07258
   Y17        0.18252  -0.00257   0.00000  -0.00028  -0.00004   0.18248
   Z17       -0.00046  -0.00000   0.00000   0.00007   0.00006  -0.00039
   X18       11.16255   0.00054   0.00000  -0.00166  -0.00166  11.16088
   Y18       -3.81356  -0.00123   0.00000  -0.00045  -0.00021  -3.81377
   Z18       -0.00047  -0.00000   0.00000   0.00011   0.00011  -0.00037
   X19       12.45172  -0.00009   0.00000   0.00047   0.00047  12.45219
   Y19        4.22323  -0.00024   0.00000   0.00254   0.00278   4.22601
   Z19       -0.00037   0.00000   0.00000   0.00002   0.00001  -0.00036
   X20       14.10188  -0.00025   0.00000  -0.00178  -0.00178  14.10010
   Y20       -0.13465   0.00023   0.00000   0.00001   0.00025  -0.13440
   Z20       -0.00061  -0.00000   0.00000   0.00010   0.00009  -0.00051
   X21       -6.91417   0.00615   0.00000  -0.00200  -0.00200  -6.91616
   Y21        1.08624   0.00252   0.00000   0.00244   0.00268   1.08892
   Z21       -0.00006  -0.00000   0.00000  -0.00000  -0.00000  -0.00006
   X22       -3.56974  -0.00052   0.00000  -0.00351  -0.00350  -3.57324
   Y22       -1.69349  -0.00081   0.00000  -0.00118  -0.00094  -1.69443
   Z22        0.00007   0.00000   0.00000  -0.00003  -0.00003   0.00004
   X23       -7.86396  -0.00286   0.00000  -0.00192  -0.00192  -7.86588
   Y23       -1.39636  -0.00239   0.00000   0.00025   0.00049  -1.39587
   Z23       -0.00012   0.00000   0.00000   0.00002   0.00002  -0.00010
   X24       -8.54367  -0.00229   0.00000  -0.00302  -0.00302  -8.54669
   Y24        3.14461  -0.00135   0.00000   0.00150   0.00173   3.14634
   Z24       -0.00009  -0.00000   0.00000  -0.00001  -0.00001  -0.00010
   X25      -10.44633   0.00299   0.00000   0.00320   0.00320 -10.44314
   Y25       -1.89528   0.00292   0.00000   0.00300   0.00324  -1.89204
   Z25       -0.00020   0.00000   0.00000   0.00005   0.00005  -0.00015
   X26      -11.13968   0.00185   0.00000   0.00008   0.00008 -11.13959
   Y26        2.64443   0.00245   0.00000   0.00389   0.00413   2.64856
   Z26       -0.00018   0.00000   0.00000   0.00002   0.00002  -0.00016
   X27       -7.85944   0.00034   0.00000  -0.00001  -0.00001  -7.85945
   Y27        5.07182   0.00034   0.00000   0.00173   0.00196   5.07379
   Z27       -0.00004  -0.00000   0.00000  -0.00003  -0.00003  -0.00007
   X28      -12.07358  -0.00067   0.00000   0.00101   0.00101 -12.07257
   Y28        0.18251  -0.00257   0.00000  -0.00027  -0.00004   0.18247
   Z28       -0.00023  -0.00000   0.00000   0.00005   0.00005  -0.00018
   X29      -11.16253  -0.00054   0.00000   0.00166   0.00166 -11.16087
   Y29       -3.81358  -0.00123   0.00000  -0.00044  -0.00020  -3.81379
   Z29       -0.00021  -0.00000   0.00000   0.00007   0.00007  -0.00014
   X30      -12.45172   0.00009   0.00000  -0.00047  -0.00046 -12.45219
   Y30        4.22322  -0.00024   0.00000   0.00254   0.00278   4.22600
   Z30       -0.00021   0.00000   0.00000   0.00002   0.00002  -0.00018
   X31      -14.10187   0.00025   0.00000   0.00177   0.00177 -14.10009
   Y31       -0.13467   0.00023   0.00000   0.00001   0.00025  -0.13442
   Z31       -0.00028  -0.00000   0.00000   0.00006   0.00006  -0.00022
   X32       -4.29473  -0.01341   0.00000  -0.01450  -0.01450  -4.30922
   Y32        0.84696  -0.00634   0.00000  -0.00456  -0.00433   0.84263
   Z32        0.00002   0.00000   0.00000  -0.00000  -0.00000   0.00002
   X33       -5.80676   0.00257   0.00000   0.00002   0.00002  -5.80675
   Y33       -3.00772   0.00413   0.00000   0.00272   0.00296  -3.00476
   Z33       -0.00007   0.00000   0.00000  -0.00000  -0.00000  -0.00008
   X34        4.29474   0.01341   0.00000   0.01450   0.01450   4.30923
   Y34        0.84696  -0.00634   0.00000  -0.00456  -0.00432   0.84264
   Z34        0.00017  -0.00000   0.00000  -0.00004  -0.00004   0.00013
   X35        5.80678  -0.00258   0.00000  -0.00002  -0.00002   5.80676
   Y35       -3.00772   0.00414   0.00000   0.00273   0.00297  -3.00476
   Z35       -0.00009   0.00000   0.00000  -0.00000  -0.00001  -0.00010
   X36        5.99518   0.00105   0.00000   0.00124   0.00124   5.99642
   Y36       -5.71017  -0.00202   0.00000  -0.00165  -0.00142  -5.71158
   Z36        0.00000   0.00000   0.00000  -0.00001  -0.00001  -0.00001
   X37        6.99886  -0.00030   0.00000  -0.00100  -0.00100   6.99785
   Y37       -6.37925   0.00008   0.00000  -0.00274  -0.00251  -6.38175
   Z37       -1.68594   0.00035   0.00000   0.00076   0.00075  -1.68519
   X38        6.99807  -0.00030   0.00000  -0.00107  -0.00107   6.99700
   Y38       -6.37924   0.00008   0.00000  -0.00275  -0.00252  -6.38176
   Z38        1.68643  -0.00036   0.00000  -0.00075  -0.00075   1.68568
   X39        4.09171  -0.00005   0.00000   0.00027   0.00027   4.09197
   Y39       -6.50450   0.00007   0.00000   0.00053   0.00077  -6.50373
   Z39       -0.00045  -0.00000   0.00000  -0.00005  -0.00006  -0.00051
   X40       -5.99517  -0.00105   0.00000  -0.00124  -0.00124  -5.99641
   Y40       -5.71018  -0.00201   0.00000  -0.00165  -0.00142  -5.71159
   Z40        0.00007   0.00000   0.00000  -0.00002  -0.00003   0.00005
   X41       -6.99794   0.00030   0.00000   0.00105   0.00105  -6.99689
   Y41       -6.37923   0.00008   0.00000  -0.00276  -0.00252  -6.38175
   Z41        1.68658  -0.00035   0.00000  -0.00077  -0.00077   1.68580
   X42       -6.99895   0.00030   0.00000   0.00102   0.00102  -6.99794
   Y42       -6.37928   0.00008   0.00000  -0.00273  -0.00249  -6.38177
   Z42       -1.68579   0.00035   0.00000   0.00073   0.00072  -1.68507
   X43       -4.09169   0.00005   0.00000  -0.00027  -0.00027  -4.09196
   Y43       -6.50450   0.00007   0.00000   0.00053   0.00077  -6.50374
   Z43       -0.00050  -0.00000   0.00000  -0.00005  -0.00006  -0.00056
   X44        0.00001  -0.00000   0.00000   0.00000   0.00000   0.00001
   Y44       -2.20124  -0.00441   0.00000  -0.00258  -0.00234  -2.20358
   Z44        0.00025  -0.00001   0.00000  -0.00006  -0.00006   0.00019
         Item               Value     Threshold  Converged?
 Maximum Force            0.013411     0.000450     NO 
 RMS     Force            0.002802     0.000300     NO 
 Maximum Displacement     0.014498     0.001800     NO 
 RMS     Displacement     0.003169     0.001200     NO 
 Predicted change in Energy=-4.055460D-04
 GradGradGradGradGradGradGradGradGradGradGradGradGradGradGradGradGradGrad

 Unable to Open any file for archive entry.
 1\1\GINC-X11P1N5\Force\UPBE1PBE\GenECP\C22H17Co1N4(3)\MAYUMIAO\17-Jul-
 2024\0\\# pbe1pbe em=gd3bj genecp g09default scf=(xqc,maxcycle=64) for
 ce guess=read nosymm\\Title Card\\0,3\C,0.00000101,0.67165688,0.000069
 8\C,-1.2164315,1.35211322,0.00003906\C,-1.23055731,2.75037174,0.\C,-0.
 00000025,3.41881257,0.00001264\C,1.23056124,2.75037196,0.0000516\C,1.2
 1643355,1.35211437,0.0000843\H,-2.15147088,3.32264896,-0.00004532\H,0.
 00000102,4.50302294,-0.0000109\H,2.15147266,3.32264994,0.0000508\C,3.6
 5882599,0.57481838,-0.00001933\C,1.88902733,-0.89615362,0.00009337\C,4
 .16142943,-0.73891454,-0.0001023\C,4.5211119,1.66405905,-0.00005107\C,
 5.5279711,-1.00293056,-0.00020629\C,5.89486846,1.39938379,-0.0001679\H
 ,4.15903419,2.68389834,0.00001414\C,6.38906324,0.09658696,-0.00024088\
 H,5.90696459,-2.01805155,-0.00025113\H,6.58916657,2.23483824,-0.000196
 1\H,7.46239285,-0.0712552,-0.00032191\C,-3.65882107,0.57481323,-0.0000
 314\C,-1.8890244,-0.8961546,0.0000376\C,-4.1614258,-0.73892325,-0.0000
 6369\C,-4.52111333,1.66405597,-0.00004865\C,-5.52796137,-1.00293711,-0
 .00010415\C,-5.89486266,1.39937439,-0.00009594\H,-4.15903416,2.6838925
 6,-0.00002097\C,-6.38906335,0.09657793,-0.00012091\H,-5.90695803,-2.01
 806051,-0.00011119\H,-6.58916675,2.23482954,-0.00010911\H,-7.46238621,
 -0.07126582,-0.0001499\N,-2.27267117,0.44819112,0.00001086\N,-3.072807
 15,-1.59161701,-0.00003862\N,2.27267694,0.44819276,0.00009073\N,3.0728
 1535,-1.59161855,-0.00004818\C,3.17251494,-3.02169039,0.0000004\H,3.70
 363657,-3.37575302,-0.89216139\H,3.70321979,-3.3757507,0.89242068\H,2.
 16523749,-3.44203279,-0.00023994\C,-3.17250725,-3.02169635,0.0000396\H
 ,-3.70314813,-3.3757436,0.89249855\H,-3.70368638,-3.37576982,-0.892082
 34\H,-2.1652268,-3.44203491,-0.00026691\Co,0.00000374,-1.16484395,0.00
 013231\\Version=ES64L-G16RevC.01\HF=-1212.1373582\S2=2.144463\S2-1=0.\
 S2A=2.003293\RMSD=1.960e-09\RMSF=2.802e-03\Dipole=-0.0000314,-1.325678
 6,-0.0000195\Quadrupole=8.2654418,11.2845934,-19.5500352,0.0001177,-0.
 0002967,-0.0002467\PG=C01 [X(C22H17Co1N4)]\\@
 The archive entry for this job was punched.


 There ain't no surer way to find out whether you
 like people or hate them than to travel with them.
                                     -- Mark Twain
 Job cpu time:       0 days  0 hours 44 minutes 48.1 seconds.
 Elapsed time:       0 days  0 hours  0 minutes 48.8 seconds.
 File lengths (MBytes):  RWF=    184 Int=      0 D2E=      0 Chk=     72 Scr=      1
 Normal termination of Gaussian 16 at Wed Jul 17 20:37:56 2024.
