 Entering Gaussian System, Link 0=g16
 Input=JOBS/30_A.gjf
 Output=JOBS/30_A.log
 Initial command:
 /data/app/gaussian/C01-avx2//g16/l1.exe "/tmp/Gau-2088580.inp" -scrdir="/tmp/"
 Entering Link 1 = /data/app/gaussian/C01-avx2//g16/l1.exe PID=   2088581.
  
 Copyright (c) 1988-2019, Gaussian, Inc.  All Rights Reserved.
  
 This is part of the Gaussian(R) 16 program.  It is based on
 the Gaussian(R) 09 system (copyright 2009, Gaussian, Inc.),
 the Gaussian(R) 03 system (copyright 2003, Gaussian, Inc.),
 the Gaussian(R) 98 system (copyright 1998, Gaussian, Inc.),
 the Gaussian(R) 94 system (copyright 1995, Gaussian, Inc.),
 the Gaussian 92(TM) system (copyright 1992, Gaussian, Inc.),
 the Gaussian 90(TM) system (copyright 1990, Gaussian, Inc.),
 the Gaussian 88(TM) system (copyright 1988, Gaussian, Inc.),
 the Gaussian 86(TM) system (copyright 1986, Carnegie Mellon
 University), and the Gaussian 82(TM) system (copyright 1983,
 Carnegie Mellon University). Gaussian is a federally registered
 trademark of Gaussian, Inc.
  
 This software contains proprietary and confidential information,
 including trade secrets, belonging to Gaussian, Inc.
  
 This software is provided under written license and may be
 used, copied, transmitted, or stored only in accord with that
 written license.
  
 The following legend is applicable only to US Government
 contracts under FAR:
  
                    RESTRICTED RIGHTS LEGEND
  
 Use, reproduction and disclosure by the US Government is
 subject to restrictions as set forth in subparagraphs (a)
 and (c) of the Commercial Computer Software - Restricted
 Rights clause in FAR 52.227-19.
  
 Gaussian, Inc.
 340 Quinnipiac St., Bldg. 40, Wallingford CT 06492
  
  
 ---------------------------------------------------------------
 Warning -- This program may not be used in any manner that
 competes with the business of Gaussian, Inc. or will provide
 assistance to any competitor of Gaussian, Inc.  The licensee
 of this program is prohibited from giving any competitor of
 Gaussian, Inc. access to this program.  By using this program,
 the user acknowledges that Gaussian, Inc. is engaged in the
 business of creating and licensing software in the field of
 computational chemistry and represents and warrants to the
 licensee that it is not a competitor of Gaussian, Inc. and that
 it will not use this program in any manner prohibited above.
 ---------------------------------------------------------------
  

 Cite this work as:
 Gaussian 16, Revision C.01,
 M. J. Frisch, G. W. Trucks, H. B. Schlegel, G. E. Scuseria, 
 M. A. Robb, J. R. Cheeseman, G. Scalmani, V. Barone, 
 G. A. Petersson, H. Nakatsuji, X. Li, M. Caricato, A. V. Marenich, 
 J. Bloino, B. G. Janesko, R. Gomperts, B. Mennucci, H. P. Hratchian, 
 J. V. Ortiz, A. F. Izmaylov, J. L. Sonnenberg, D. Williams-Young, 
 F. Ding, F. Lipparini, F. Egidi, J. Goings, B. Peng, A. Petrone, 
 T. Henderson, D. Ranasinghe, V. G. Zakrzewski, J. Gao, N. Rega, 
 G. Zheng, W. Liang, M. Hada, M. Ehara, K. Toyota, R. Fukuda, 
 J. Hasegawa, M. Ishida, T. Nakajima, Y. Honda, O. Kitao, H. Nakai, 
 T. Vreven, K. Throssell, J. A. Montgomery, Jr., J. E. Peralta, 
 F. Ogliaro, M. J. Bearpark, J. J. Heyd, E. N. Brothers, K. N. Kudin, 
 V. N. Staroverov, T. A. Keith, R. Kobayashi, J. Normand, 
 K. Raghavachari, A. P. Rendell, J. C. Burant, S. S. Iyengar, 
 J. Tomasi, M. Cossi, J. M. Millam, M. Klene, C. Adamo, R. Cammi, 
 J. W. Ochterski, R. L. Martin, K. Morokuma, O. Farkas, 
 J. B. Foresman, and D. J. Fox, Gaussian, Inc., Wallingford CT, 2019.
 
 ******************************************
 Gaussian 16:  ES64L-G16RevC.01  3-Jul-2019
                17-Jul-2024 
 ******************************************
 %chk=a.chk
 %nprocshared=56
 Will use up to   56 processors via shared memory.
 %mem=96gb
 ----------------------------------------------------------------------
 # pbe1pbe em=gd3bj genecp g09default scf=(xqc,maxcycle=64) force guess
 =read nosymm
 ----------------------------------------------------------------------
 1/10=7,30=1,38=1,158=3,167=1/1,3;
 2/12=2,15=1,17=6,18=5,40=1/2;
 3/5=7,11=2,16=1,17=8,25=1,27=10,30=1,71=1,74=-13,75=-4,116=-2,124=41,158=3/1,2,3;
 4/5=1,60=-1/1;
 5/5=2,7=64,8=3,13=1,38=6,87=10/2,8;
 6/7=2,8=2,9=2,10=2,28=1,87=10/1;
 7/29=1,30=1,87=10/1,2,3,16;
 1/10=7,30=1,158=3,167=1/3;
 99//99;
 Using 2006 physical constants.
 ----------
 Title Card
 ----------
 Symbolic Z-matrix:
 Charge =  0 Multiplicity = 1
 6                     0.00001   0.78617   0.0001 
 6                    -1.277     1.35691   0.00003 
 6                    -1.24463   2.75323  -0.00001 
 6                    0.         3.40261   0.00001 
 6                     1.24464   2.75323   0.00004 
 6                     1.27699   1.35692   0.00007 
 1                    -2.15684   3.33512  -0.00004 
 1                     0.        4.48951  -0.00001 
 1                     2.15684   3.33512   0.00005 
 6                     3.68964   0.58147  -0.00003 
 6                     1.91823  -0.90747   0.00013 
 6                     4.18597  -0.74286  -0.0001 
 6                     4.54726   1.66474  -0.00006 
 6                     5.54877  -0.99959  -0.0002 
 6                     5.92901   1.40348  -0.00017 
 1                     4.17755   2.68257   0.00001 
 6                     6.4152    0.10448  -0.00024 
 1                     5.9262   -2.01752  -0.00024 
 1                     6.61906   2.24141  -0.0002 
 1                     7.48661  -0.0691   -0.00033 
 6                    -3.68961   0.58144  -0.00004 
 6                    -1.91823  -0.90748   0.0001 
 6                    -4.18599  -0.74287  -0.00007 
 6                    -4.54728   1.66476  -0.00006 
 6                    -5.54874  -0.99959  -0.0001 
 6                    -5.929     1.40346  -0.0001 
 1                    -4.17755   2.68255  -0.00002 
 6                    -6.4152    0.10447  -0.00012 
 1                    -5.9262   -2.01753  -0.0001 
 1                    -6.61906   2.2414   -0.00011 
 1                    -7.4866   -0.06911  -0.00015 
 7                    -2.30428   0.4712    0.00002 
 7                    -3.11624  -1.60378  -0.00005 
 7                     2.30429   0.47119   0.00008 
 7                     3.11626  -1.60378  -0.00004 
 6                     3.19951  -3.02856   0.00001 
 1                     3.71769  -3.39903  -0.8933 
 1                     3.71723  -3.39905   0.89358 
 1                     2.18614  -3.44058  -0.00027 
 6                    -3.19951  -3.02857   0.00004 
 1                    -3.71715  -3.39903   0.89366 
 1                    -3.71774  -3.39906  -0.89321 
 1                    -2.18613  -3.44058  -0.0003 
 27                    0.00001  -1.23823   0.00009 
 

 GradGradGradGradGradGradGradGradGradGradGradGradGradGradGradGradGradGrad
 Berny optimization.
 Initialization pass.
 Trust Radius=3.00D-01 FncErr=1.00D-07 GrdErr=1.00D-07 EigMax=2.50D+02 EigMin=1.00D-04
 Number of steps in this run=      2 maximum allowed number of steps=      2.
 GradGradGradGradGradGradGradGradGradGradGradGradGradGradGradGradGradGrad

                          Input orientation:                          
 ---------------------------------------------------------------------
 Center     Atomic      Atomic             Coordinates (Angstroms)
 Number     Number       Type             X           Y           Z
 ---------------------------------------------------------------------
      1          6           0        0.000009    0.786166    0.000102
      2          6           0       -1.277005    1.356914    0.000034
      3          6           0       -1.244633    2.753232   -0.000010
      4          6           0       -0.000001    3.402608    0.000007
      5          6           0        1.244641    2.753225    0.000038
      6          6           0        1.276993    1.356924    0.000073
      7          1           0       -2.156838    3.335118   -0.000044
      8          1           0        0.000001    4.489507   -0.000009
      9          1           0        2.156843    3.335117    0.000045
     10          6           0        3.689638    0.581475   -0.000029
     11          6           0        1.918232   -0.907474    0.000134
     12          6           0        4.185970   -0.742862   -0.000098
     13          6           0        4.547263    1.664739   -0.000060
     14          6           0        5.548769   -0.999587   -0.000199
     15          6           0        5.929010    1.403479   -0.000171
     16          1           0        4.177548    2.682566    0.000007
     17          6           0        6.415195    0.104476   -0.000243
     18          1           0        5.926203   -2.017516   -0.000241
     19          1           0        6.619061    2.241410   -0.000196
     20          1           0        7.486605   -0.069102   -0.000327
     21          6           0       -3.689613    0.581444   -0.000042
     22          6           0       -1.918232   -0.907480    0.000101
     23          6           0       -4.185991   -0.742866   -0.000072
     24          6           0       -4.547279    1.664759   -0.000056
     25          6           0       -5.548740   -0.999593   -0.000101
     26          6           0       -5.929003    1.403464   -0.000101
     27          1           0       -4.177549    2.682553   -0.000024
     28          6           0       -6.415199    0.104474   -0.000124
     29          1           0       -5.926197   -2.017527   -0.000102
     30          1           0       -6.619065    2.241404   -0.000109
     31          1           0       -7.486599   -0.069114   -0.000153
     32          7           0       -2.304277    0.471199    0.000016
     33          7           0       -3.116244   -1.603777   -0.000049
     34          7           0        2.304285    0.471188    0.000080
     35          7           0        3.116263   -1.603777   -0.000038
     36          6           0        3.199513   -3.028561    0.000008
     37          1           0        3.717687   -3.399033   -0.893298
     38          1           0        3.717225   -3.399046    0.893582
     39          1           0        2.186144   -3.440576   -0.000273
     40          6           0       -3.199508   -3.028569    0.000044
     41          1           0       -3.717152   -3.399033    0.893664
     42          1           0       -3.717741   -3.399061   -0.893214
     43          1           0       -2.186135   -3.440578   -0.000303
     44         27           0        0.000006   -1.238230    0.000094
 ---------------------------------------------------------------------
                    Distance matrix (angstroms):
                    1          2          3          4          5
     1  C    0.000000
     2  C    1.398756   0.000000
     3  C    2.327764   1.396693   0.000000
     4  C    2.616442   2.411556   1.403851   0.000000
     5  C    2.327753   2.882427   2.489274   1.403864   0.000000
     6  C    1.398732   2.553997   2.882407   2.411543   1.396676
     7  H    3.339034   2.165040   1.081993   2.157892   3.450892
     8  H    3.703342   3.382882   2.136298   1.086899   2.136306
     9  H    3.339024   3.962903   3.450888   2.157900   1.081993
    10  C    3.695302   5.026813   5.391063   4.644592   3.270246
    11  C    2.558905   3.916247   4.837819   4.717672   3.722156
    12  C    4.456478   5.852619   6.458647   5.891288   4.568812
    13  C    4.631351   5.832397   5.893291   4.868039   3.477372
    14  C    5.829035   7.221100   7.761054   7.082950   5.710439
    15  C    5.961051   7.206165   7.299520   6.256972   4.874949
    16  H    4.587827   5.613332   5.422641   4.239148   2.933757
    17  C    6.451303   7.793494   8.104868   7.213350   5.809518
    18  H    6.555943   7.954431   8.612834   8.031042   6.684085
    19  H    6.777137   7.945451   7.880333   6.720147   5.398736
    20  H    7.535290   8.878873   9.176061   8.252397   6.850376
    21  C    3.695298   2.534173   3.270259   4.644589   5.391058
    22  C    2.558922   2.353433   3.722169   4.717676   4.837822
    23  C    4.456517   3.587656   4.568839   5.891304   6.458671
    24  C    4.631388   3.284731   3.477390   4.868044   5.893309
    25  C    5.829027   4.878611   5.710431   7.082928   7.761035
    26  C    5.961061   4.652231   4.874956   6.256967   7.299522
    27  H    4.587841   3.189119   2.933768   4.239149   5.422651
    28  C    6.451326   5.288634   5.809533   7.213352   8.104877
    29  H    6.555960   5.744722   6.684099   8.031043   8.612839
    30  H    6.777157   5.414788   5.398748   6.720148   7.880345
    31  H    7.535304   6.371233   6.850385   8.252393   9.176064
    32  N    2.325713   1.356384   2.516052   3.728652   4.219297
    33  N    3.927195   3.485468   4.741988   5.897021   6.164478
    34  N    2.325704   3.689194   4.219306   3.728668   2.516056
    35  N    3.927195   5.297781   6.164490   5.897032   4.741986
    36  C    4.978852   6.266706   7.292432   7.183094   6.103325
    37  H    5.668789   6.954424   7.954429   7.802661   6.690612
    38  H    5.668509   6.954129   7.954186   7.802484   6.690481
    39  H    4.758626   5.916866   7.080500   7.183898   6.264950
    40  C    4.978867   4.788369   6.103340   7.183097   7.292435
    41  H    5.668477   5.419586   6.690468   7.802445   7.954133
    42  H    5.668845   5.419813   6.690648   7.802700   7.954480
    43  H    4.758633   4.882872   6.264958   7.183897   7.080496
    44  Co   2.024396   2.892322   4.181016   4.640838   4.181009
                    6          7          8          9         10
     6  C    0.000000
     7  H    3.962883   0.000000
     8  H    3.382867   2.446338   0.000000
     9  H    2.165037   4.313681   2.446340   0.000000
    10  C    2.534202   6.462494   5.374583   3.151509   0.000000
    11  C    2.353442   5.882668   5.727742   4.249296   2.314054
    12  C    3.587652   7.540632   6.700748   4.554917   1.414289
    13  C    3.284726   6.909062   5.353215   2.916209   1.381659
    14  C    4.878649   8.841156   7.805061   5.504073   2.440517
    15  C    4.652250   8.313373   6.684064   4.237980   2.385472
    16  H    3.189129   6.367909   4.551585   2.123457   2.156998
    17  C    5.288644   9.160611   7.770664   5.345148   2.766982
    18  H    5.744736   9.694649   8.801205   6.546660   3.428844
    19  H    5.414796   8.843789   6.990415   4.594300   3.367033
    20  H    6.371251  10.226667   8.765282   6.324167   3.852300
    21  C    5.026783   3.151527   5.374590   6.462489   7.379251
    22  C    3.916246   4.249302   5.727747   5.882674   5.802171
    23  C    5.852633   4.554933   6.700766   7.540656   7.986202
    24  C    5.832401   2.916214   5.353220   6.909077   8.307846
    25  C    7.221066   5.504063   7.805047   8.841137   9.372694
    26  C    7.206146   4.237985   6.684067   8.313374   9.653700
    27  H    5.613316   2.123468   4.551594   6.367916   8.142921
    28  C    7.793487   5.345156   7.770670   9.160620  10.116089
    29  H    7.954424   6.546669   8.801211   9.694655   9.960878
    30  H    7.945440   4.594309   6.990422   8.843798  10.441490
    31  H    8.878858   6.324171   8.765285  10.226669  11.195157
    32  N    3.689173   2.867711   4.632116   5.301284   5.994930
    33  N    5.297761   5.031217   6.843910   7.224827   7.148101
    34  N    1.356414   5.301294   4.632129   2.867722   1.389736
    35  N    3.485493   7.224837   6.843917   5.031219   2.259222
    36  C    4.788378   8.317867   8.170571   6.448532   3.643155
    37  H    5.419799   8.980909   8.766312   6.970156   4.079602
    38  H    5.419626   8.980654   8.766159   6.970090   4.079687
    39  H    4.882884   8.048075   8.225900   6.775756   4.293877
    40  C    6.266706   6.448540   8.170578   8.317872   7.777709
    41  H    6.954071   6.970084   8.766125   8.980598   8.455984
    42  H    6.954474   6.970174   8.766352   8.980969   8.456459
    43  H    5.916863   6.775759   8.225901   8.048074   7.120507
    44  Co   2.892321   5.056430   5.727738   5.056427   4.113966
                   11         12         13         14         15
    11  C    0.000000
    12  C    2.273705   0.000000
    13  C    3.678055   2.434558   0.000000
    14  C    3.631705   1.386769   2.846339   0.000000
    15  C    4.628914   2.764953   1.406229   2.432963   0.000000
    16  H    4.241803   3.425438   1.082895   3.929185   2.168798
    17  C    4.609416   2.384832   2.433843   1.403441   1.387006
    18  H    4.158848   2.157117   3.931981   1.085650   3.420996
    19  H    5.658027   3.850430   2.150557   3.413149   1.085495
    20  H    5.631132   3.368701   3.412614   2.149653   2.143502
    21  C    5.802138   7.986151   8.307808   9.372693   9.653686
    22  C    3.836464   6.106421   6.958372   7.467569   8.180448
    23  C    6.106443   8.371961   9.059045   9.738145  10.340215
    24  C    6.958392   9.059044   9.094542  10.441691  10.479546
    25  C    7.467540   9.738095  10.441645  11.097509  11.726615
    26  C    8.180436  10.340183  10.479524  11.726632  11.858013
    27  H    7.074380   9.037805   8.783980  10.399972  10.187177
    28  C    8.394648  10.634979  11.072941  12.014803  12.412369
    29  H    7.922581  10.192188  11.101912  11.520029  12.338931
    30  H    9.099499  11.209577  11.181209  12.592069  12.576021
    31  H    9.442124  11.691997  12.158128  13.068535  13.496188
    32  N    4.441883   6.602822   6.954721   7.989590   8.285902
    33  N    5.082400   7.352789   8.331419   8.686052   9.532062
    34  N    1.431694   2.239342   2.540770   3.562282   3.742699
    35  N    1.385682   1.373116   3.568047   2.506418   4.117661
    36  C    2.478042   2.489482   4.882980   3.104149   5.205107
    37  H    3.200644   2.841187   5.208441   3.147671   5.362066
    38  H    3.200399   2.841426   5.208597   3.148143   5.362372
    39  H    2.547229   3.358119   5.624866   4.155198   6.121594
    40  C    5.539884   7.731090   9.057572   8.980486  10.147556
    41  H    6.226059   8.385308   9.733503   9.613201  10.812562
    42  H    6.226578   8.385804   9.733966   9.613697  10.813035
    43  H    4.823115   6.919638   8.450024   8.110930   9.450950
    44  Co   1.946534   4.215174   5.394885   5.553893   6.490895
                   16         17         18         19         20
    16  H    0.000000
    17  C    3.413739   0.000000
    18  H    5.014834   2.177605   0.000000
    19  H    2.481050   2.146637   4.314917   0.000000
    20  H    4.303666   1.085380   2.496232   2.468016   0.000000
    21  C    8.142907  10.116059   9.960849  10.441468  11.195136
    22  C    7.074387   8.394644   7.922583   9.099499   9.442131
    23  C    9.037830  10.634996  10.192212  11.209597  11.692026
    24  C    8.783992  11.072954  11.101935  11.181220  12.158151
    25  C   10.399950  12.014770  11.520003  12.592041  13.068513
    26  C   10.187171  12.412356  12.338922  12.576012  13.496184
    27  H    8.355097  10.901959  11.143449  10.805619  11.984328
    28  C   10.901965  12.830394  12.522501  13.208272  13.902888
    29  H   11.143452  12.522494  11.852400  13.248474  13.553584
    30  H   10.805622  13.208270  13.248476  13.238126  14.293648
    31  H   11.984325  13.902878  13.553579  14.293641  14.973204
    32  N    6.848664   8.727181   8.598517   9.097231   9.805779
    33  N    8.460031   9.683308   9.051907  10.467169  10.713339
    34  N    2.898155   4.127233   4.394534   4.663794   5.210408
    35  N    4.415774   3.714981   2.840236   5.201448   4.631967
    36  C    5.794267   4.489602   2.908100   6.282190   5.209372
    37  H    6.164034   4.510950   2.753849   6.405483   5.107894
    38  H    6.164120   4.511389   2.754474   6.405798   5.108407
    39  H    6.438831   5.518357   4.001641   7.206644   6.281856
    40  C    9.329417  10.112294   9.181548  11.143473  11.088349
    41  H   10.005536  10.758164   9.782737  11.808933  11.722279
    42  H   10.005979  10.758651   9.783236  11.809398  11.722766
    43  H    8.831157   9.303240   8.236208  10.479335  10.243473
    44  Co   5.729267   6.554198   5.977215   7.477954   7.577337
                   21         22         23         24         25
    21  C    0.000000
    22  C    2.314020   0.000000
    23  C    1.414280   2.273726   0.000000
    24  C    1.381724   3.678084   2.434582   0.000000
    25  C    2.440498   3.631676   1.386720   2.846348   0.000000
    26  C    2.385494   4.628903   2.764927   1.406214   2.432958
    27  H    2.157022   4.241798   3.425430   1.082869   3.929169
    28  C    2.767005   4.609422   2.384817   2.433848   1.403466
    29  H    3.428842   4.158845   2.157099   3.932002   1.085662
    30  H    3.367069   5.658030   3.850417   2.150539   3.413159
    31  H    3.852314   5.631125   3.368672   3.412612   2.149672
    32  N    1.389716   1.431708   2.239376   2.540795   3.562270
    33  N    2.259191   1.385664   1.373145   3.568079   2.506407
    34  N    5.994913   4.441889   6.602849   6.954750   7.989568
    35  N    7.148086   5.082417   7.352828   8.331458   8.686041
    36  C    7.777673   5.539883   7.731111   9.057596   8.980459
    37  H    8.456370   6.226522   8.385774   9.733936   9.613624
    38  H    8.456011   6.226121   8.385388   9.733588   9.613228
    39  H    7.120475   4.823119   6.919664   8.450054   8.110908
    40  C    3.643130   2.478042   2.489495   4.883013   3.104131
    41  H    4.079665   3.200376   2.841442   5.208630   3.148149
    42  H    4.079579   3.200659   2.841184   5.208467   3.147642
    43  H    4.293845   2.547226   3.358135   5.624897   4.155180
    44  Co   4.113940   1.946543   4.215205   5.394918   5.553874
                   26         27         28         29         30
    26  C    0.000000
    27  H    2.168792   0.000000
    28  C    1.386997   3.413733   0.000000
    29  H    3.420992   5.014830   2.177616   0.000000
    30  H    1.085509   2.481050   2.146632   4.314922   0.000000
    31  H    2.143500   4.303659   1.085371   2.496230   2.468017
    32  N    3.742693   2.898143   4.127247   4.394549   4.663798
    33  N    4.117659   4.415767   3.715001   2.840251   5.201459
    34  N    8.285902   6.848673   8.727193   8.598520   9.097244
    35  N    9.532068   8.460042   9.683330   9.051921  10.467187
    36  C   10.147544   9.329410  10.112300   9.181546  11.143474
    37  H   10.812973  10.005917  10.758610   9.783192  11.809350
    38  H   10.812608  10.005591  10.758224   9.782784  11.808990
    39  H    9.450943   8.831155   9.303251   8.236210  10.479341
    40  C    5.205099   5.794263   4.489613   2.908099   6.282195
    41  H    5.362376   6.164117   4.511416   2.754498   6.405814
    42  H    5.362049   6.164028   4.510947   2.753827   6.405478
    43  H    6.121585   6.438825   5.518368   4.001642   7.206649
    44  Co   6.490893   5.729267   6.554213   5.977222   7.477964
                   31         32         33         34         35
    31  H    0.000000
    32  N    5.210412   0.000000
    33  N    4.631975   2.228187   0.000000
    34  N    9.805781   4.608563   5.804104   0.000000
    35  N   10.713350   5.804117   6.232506   2.228180   0.000000
    36  C   11.088342   6.522272   6.474473   3.612434   1.427215
    37  H   11.722717   7.213928   7.122039   4.215974   2.093458
    38  H   11.722324   7.213581   7.121648   4.215858   2.093491
    39  H   10.243472   5.955323   5.611519   3.913547   2.058871
    40  C    5.209368   3.612453   1.427223   6.522273   6.474488
    41  H    5.108424   4.215865   2.093503   7.213516   7.121601
    42  H    5.107875   4.216000   2.093462   7.213987   7.122108
    43  H    6.281854   3.913561   2.058868   5.955316   5.611529
    44  Co   7.577340   2.869123   3.137616   2.869114   3.137624
                   36         37         38         39         40
    36  C    0.000000
    37  H    1.097154   0.000000
    38  H    1.097160   1.786879   0.000000
    39  H    1.093925   1.773370   1.773389   0.000000
    40  C    6.399022   6.984475   6.984044   5.401389   0.000000
    41  H    6.983991   7.646571   7.434377   5.970741   1.097157
    42  H    6.984520   7.435428   7.646657   5.971175   1.097150
    43  H    5.401385   5.971120   5.970797   4.372279   1.093928
    44  Co   3.666352   4.391853   4.391488   3.103148   3.666361
                   41         42         43         44
    41  H    0.000000
    42  H    1.786878   0.000000
    43  H    1.773391   1.773367   0.000000
    44  Co   4.391446   4.391905   3.103151   0.000000
 Symmetry turned off by external request.
 Stoichiometry    C22H17CoN4
 Framework group  C1[X(C22H17CoN4)]
 Deg. of freedom   126
 Full point group                 C1      NOp   1
 Rotational constants (GHZ):           0.4638577           0.1004727           0.0826716
 General basis read from cards:  (5D, 7F)
 ======================================================================================================
                                       Pseudopotential Parameters
 ======================================================================================================
  Center     Atomic      Valence      Angular      Power
  Number     Number     Electrons     Momentum     of R      Exponent        Coefficient   SO-Coeffient
 ======================================================================================================
    1          6
                                   No pseudopotential on this center.
    2          6
                                   No pseudopotential on this center.
    3          6
                                   No pseudopotential on this center.
    4          6
                                   No pseudopotential on this center.
    5          6
                                   No pseudopotential on this center.
    6          6
                                   No pseudopotential on this center.
    7          1
                                   No pseudopotential on this center.
    8          1
                                   No pseudopotential on this center.
    9          1
                                   No pseudopotential on this center.
   10          6
                                   No pseudopotential on this center.
   11          6
                                   No pseudopotential on this center.
   12          6
                                   No pseudopotential on this center.
   13          6
                                   No pseudopotential on this center.
   14          6
                                   No pseudopotential on this center.
   15          6
                                   No pseudopotential on this center.
   16          1
                                   No pseudopotential on this center.
   17          6
                                   No pseudopotential on this center.
   18          1
                                   No pseudopotential on this center.
   19          1
                                   No pseudopotential on this center.
   20          1
                                   No pseudopotential on this center.
   21          6
                                   No pseudopotential on this center.
   22          6
                                   No pseudopotential on this center.
   23          6
                                   No pseudopotential on this center.
   24          6
                                   No pseudopotential on this center.
   25          6
                                   No pseudopotential on this center.
   26          6
                                   No pseudopotential on this center.
   27          1
                                   No pseudopotential on this center.
   28          6
                                   No pseudopotential on this center.
   29          1
                                   No pseudopotential on this center.
   30          1
                                   No pseudopotential on this center.
   31          1
                                   No pseudopotential on this center.
   32          7
                                   No pseudopotential on this center.
   33          7
                                   No pseudopotential on this center.
   34          7
                                   No pseudopotential on this center.
   35          7
                                   No pseudopotential on this center.
   36          6
                                   No pseudopotential on this center.
   37          1
                                   No pseudopotential on this center.
   38          1
                                   No pseudopotential on this center.
   39          1
                                   No pseudopotential on this center.
   40          6
                                   No pseudopotential on this center.
   41          1
                                   No pseudopotential on this center.
   42          1
                                   No pseudopotential on this center.
   43          1
                                   No pseudopotential on this center.
   44         27           17
                                      F and up 
                                                     2        1.0000000        0.00000000    0.00000000
                                      S - F
                                                     2       23.6600000      283.96056600    0.00000000
                                                     2       10.6100000       47.15684600    0.00000000
                                      P - F
                                                     2       25.0400000      182.21223600    0.00000000
                                                     2       10.4400000       35.23335200    0.00000000
                                      D - F
                                                     2       29.5400000      -26.47533300    0.00000000
                                                     2       10.1800000       -1.82578700    0.00000000
 ======================================================================================================
   441 basis functions,   871 primitive gaussians,   473 cartesian basis functions
    97 alpha electrons       97 beta electrons
       nuclear repulsion energy      2486.3701036946 Hartrees.
 NAtoms=   44 NActive=   44 NUniq=   44 SFac= 1.00D+00 NAtFMM=   60 NAOKFM=F Big=F
 Integral buffers will be    131072 words long.
 Raffenetti 2 integral format.
 Two-electron integral symmetry is turned off.
 Nuclear repulsion after empirical dispersion term =     2486.3109980504 Hartrees.
 One-electron integrals computed using PRISM.
   1 Symmetry operations used in ECPInt.
 ECPInt:  NShTT=   11781 NPrTT=   71406 LenC2=    9522 LenP2D=   32032.
 LDataN:  DoStor=T MaxTD1= 6 Len=  172
 NBasis=   441 RedAO= T EigKep=  3.24D-04  NBF=   441
 NBsUse=   441 1.00D-06 EigRej= -1.00D+00 NBFU=   441
 Initial guess from the checkpoint file:  "a.chk"
 B after Tr=     0.000001    0.002440    0.000002
         Rot=    1.000000    0.000000   -0.000000    0.000000 Ang=   0.00 deg.
 Initial guess <Sx>= 0.0000 <Sy>= 0.0000 <Sz>= 0.0000 <S**2>= 0.0000 S= 0.0000
 Requested convergence on RMS density matrix=1.00D-08 within  64 cycles.
 Requested convergence on MAX density matrix=1.00D-06.
 Requested convergence on             energy=1.00D-06.
 No special actions if energy rises.
 SCF Done:  E(UPBE1PBE) =  -1212.12095921     A.U. after   14 cycles
            NFock= 14  Conv=0.45D-08     -V/T= 2.0552
 <Sx>= 0.0000 <Sy>= 0.0000 <Sz>= 0.0000 <S**2>= 0.0000 S= 0.0000
 <L.S>=  0.00000000000    
 Annihilation of the first spin contaminant:
 S**2 before annihilation     0.0000,   after    -0.0000
 QCSCF skips out because SCF is already converged.

 **********************************************************************

            Population analysis using the SCF Density.

 **********************************************************************

 Alpha  occ. eigenvalues --  -14.45789 -14.45789 -14.45191 -14.45191 -10.28276
 Alpha  occ. eigenvalues --  -10.28276 -10.27648 -10.27647 -10.27436 -10.27436
 Alpha  occ. eigenvalues --  -10.27296 -10.27295 -10.25191 -10.25191 -10.24156
 Alpha  occ. eigenvalues --  -10.24156 -10.23923 -10.23923 -10.23468 -10.23468
 Alpha  occ. eigenvalues --  -10.23413 -10.23413 -10.21456 -10.21452 -10.21151
 Alpha  occ. eigenvalues --  -10.19049  -3.83129  -2.34880  -2.34814  -2.31054
 Alpha  occ. eigenvalues --   -1.05953  -1.05887  -0.97110  -0.96778  -0.88216
 Alpha  occ. eigenvalues --   -0.87965  -0.84960  -0.80335  -0.78798  -0.77938
 Alpha  occ. eigenvalues --   -0.77842  -0.75587  -0.75055  -0.72943  -0.71853
 Alpha  occ. eigenvalues --   -0.66579  -0.65182  -0.64539  -0.64106  -0.62646
 Alpha  occ. eigenvalues --   -0.61423  -0.58922  -0.57255  -0.56646  -0.54122
 Alpha  occ. eigenvalues --   -0.53218  -0.51978  -0.49727  -0.49669  -0.49064
 Alpha  occ. eigenvalues --   -0.48206  -0.47900  -0.47468  -0.46650  -0.46167
 Alpha  occ. eigenvalues --   -0.45816  -0.45340  -0.45044  -0.44617  -0.44082
 Alpha  occ. eigenvalues --   -0.42397  -0.41929  -0.41099  -0.38546  -0.38423
 Alpha  occ. eigenvalues --   -0.38317  -0.37492  -0.36872  -0.36790  -0.36734
 Alpha  occ. eigenvalues --   -0.35147  -0.34661  -0.34445  -0.33875  -0.31599
 Alpha  occ. eigenvalues --   -0.28956  -0.26645  -0.25931  -0.24785  -0.24471
 Alpha  occ. eigenvalues --   -0.22255  -0.21281  -0.20558  -0.20206  -0.16362
 Alpha  occ. eigenvalues --   -0.15328  -0.14871
 Alpha virt. eigenvalues --   -0.04488  -0.02458  -0.00639  -0.00090   0.00863
 Alpha virt. eigenvalues --    0.01339   0.02028   0.03312   0.05361   0.05922
 Alpha virt. eigenvalues --    0.06293   0.07334   0.08976   0.09319   0.10109
 Alpha virt. eigenvalues --    0.10509   0.12621   0.13128   0.14198   0.14245
 Alpha virt. eigenvalues --    0.15318   0.15643   0.15901   0.16034   0.16530
 Alpha virt. eigenvalues --    0.16820   0.17100   0.17664   0.17905   0.18316
 Alpha virt. eigenvalues --    0.19239   0.19253   0.19758   0.20384   0.22173
 Alpha virt. eigenvalues --    0.22179   0.22620   0.22781   0.23015   0.23873
 Alpha virt. eigenvalues --    0.25946   0.26049   0.26501   0.27734   0.27831
 Alpha virt. eigenvalues --    0.28386   0.29370   0.29570   0.30717   0.31093
 Alpha virt. eigenvalues --    0.31775   0.33282   0.33766   0.34518   0.34652
 Alpha virt. eigenvalues --    0.36374   0.37770   0.38197   0.39573   0.39678
 Alpha virt. eigenvalues --    0.41547   0.43112   0.44625   0.45373   0.46430
 Alpha virt. eigenvalues --    0.47516   0.47819   0.50477   0.51322   0.51991
 Alpha virt. eigenvalues --    0.52226   0.53564   0.53777   0.56008   0.56063
 Alpha virt. eigenvalues --    0.56864   0.56896   0.57040   0.58135   0.58470
 Alpha virt. eigenvalues --    0.58649   0.59066   0.59336   0.60168   0.61480
 Alpha virt. eigenvalues --    0.61554   0.61897   0.63046   0.63120   0.63253
 Alpha virt. eigenvalues --    0.63378   0.63418   0.63429   0.64049   0.64471
 Alpha virt. eigenvalues --    0.65285   0.65982   0.66365   0.66921   0.67064
 Alpha virt. eigenvalues --    0.67650   0.68285   0.68438   0.68965   0.70924
 Alpha virt. eigenvalues --    0.72266   0.72545   0.74050   0.75928   0.76254
 Alpha virt. eigenvalues --    0.76566   0.77121   0.78339   0.79865   0.80148
 Alpha virt. eigenvalues --    0.81085   0.81984   0.82680   0.83441   0.83846
 Alpha virt. eigenvalues --    0.84141   0.84401   0.85084   0.86601   0.86841
 Alpha virt. eigenvalues --    0.86866   0.87285   0.87630   0.89864   0.90419
 Alpha virt. eigenvalues --    0.90544   0.91487   0.91673   0.92129   0.92837
 Alpha virt. eigenvalues --    0.93461   0.93763   0.95292   0.95634   0.95973
 Alpha virt. eigenvalues --    0.96002   0.97249   0.97955   0.97971   0.98326
 Alpha virt. eigenvalues --    0.98335   1.00130   1.00259   1.01751   1.02141
 Alpha virt. eigenvalues --    1.02881   1.03523   1.04008   1.06391   1.07385
 Alpha virt. eigenvalues --    1.09202   1.09740   1.11115   1.11152   1.13959
 Alpha virt. eigenvalues --    1.15044   1.15653   1.16204   1.16740   1.18480
 Alpha virt. eigenvalues --    1.18502   1.19147   1.20428   1.23718   1.24073
 Alpha virt. eigenvalues --    1.24600   1.25524   1.27064   1.27236   1.28007
 Alpha virt. eigenvalues --    1.29181   1.29490   1.30265   1.32929   1.33341
 Alpha virt. eigenvalues --    1.33815   1.36170   1.36337   1.37357   1.39069
 Alpha virt. eigenvalues --    1.40381   1.41643   1.42631   1.42756   1.42822
 Alpha virt. eigenvalues --    1.44958   1.45116   1.45387   1.46471   1.47716
 Alpha virt. eigenvalues --    1.47972   1.49275   1.49929   1.49934   1.51099
 Alpha virt. eigenvalues --    1.51312   1.51321   1.53356   1.54945   1.57277
 Alpha virt. eigenvalues --    1.57567   1.59652   1.61880   1.65681   1.65801
 Alpha virt. eigenvalues --    1.65869   1.70453   1.72540   1.72872   1.76505
 Alpha virt. eigenvalues --    1.77474   1.78661   1.79855   1.80086   1.82159
 Alpha virt. eigenvalues --    1.82782   1.85802   1.87065   1.87175   1.87561
 Alpha virt. eigenvalues --    1.88456   1.88582   1.90072   1.91210   1.92020
 Alpha virt. eigenvalues --    1.93342   1.95184   1.95199   1.96485   1.97155
 Alpha virt. eigenvalues --    1.98028   1.98558   1.98700   1.98832   1.99175
 Alpha virt. eigenvalues --    1.99682   2.00310   2.01692   2.02429   2.03640
 Alpha virt. eigenvalues --    2.06466   2.06720   2.07546   2.10079   2.10406
 Alpha virt. eigenvalues --    2.12620   2.13125   2.14336   2.15209   2.15421
 Alpha virt. eigenvalues --    2.16201   2.16693   2.16860   2.19062   2.19894
 Alpha virt. eigenvalues --    2.20532   2.21471   2.21538   2.22438   2.23667
 Alpha virt. eigenvalues --    2.24858   2.24894   2.26214   2.27225   2.27630
 Alpha virt. eigenvalues --    2.27865   2.28139   2.28263   2.28459   2.28728
 Alpha virt. eigenvalues --    2.32864   2.34851   2.38847   2.39896   2.40557
 Alpha virt. eigenvalues --    2.40653   2.43973   2.44617   2.46608   2.46786
 Alpha virt. eigenvalues --    2.51699   2.51790   2.52071   2.57172   2.58594
 Alpha virt. eigenvalues --    2.59025   2.59808   2.60273   2.60587   2.62562
 Alpha virt. eigenvalues --    2.64085   2.65047   2.66510   2.68103   2.69645
 Alpha virt. eigenvalues --    2.69672   2.70413   2.72229   2.74550   2.74929
 Alpha virt. eigenvalues --    2.75570   2.75620   2.77610   2.79015   2.80053
 Alpha virt. eigenvalues --    2.80167   2.83410   2.85725   2.88301   2.88442
 Alpha virt. eigenvalues --    2.93425   2.94226   2.97811   2.98207   3.00021
 Alpha virt. eigenvalues --    3.00607   3.06290   3.07196   3.15579   3.19264
 Alpha virt. eigenvalues --    3.19717   3.29489   3.40170   3.46614   3.47125
 Alpha virt. eigenvalues --    3.52437   3.52767   3.61566   5.66742   5.67124
 Alpha virt. eigenvalues --    5.67613   5.68449   5.68833   5.69818   5.71941
 Alpha virt. eigenvalues --   45.82117  45.97361  46.02442  63.11814
  Beta  occ. eigenvalues --  -14.45789 -14.45789 -14.45191 -14.45191 -10.28276
  Beta  occ. eigenvalues --  -10.28276 -10.27648 -10.27647 -10.27436 -10.27436
  Beta  occ. eigenvalues --  -10.27296 -10.27295 -10.25191 -10.25191 -10.24156
  Beta  occ. eigenvalues --  -10.24156 -10.23923 -10.23923 -10.23468 -10.23468
  Beta  occ. eigenvalues --  -10.23413 -10.23413 -10.21456 -10.21452 -10.21151
  Beta  occ. eigenvalues --  -10.19049  -3.83129  -2.34880  -2.34814  -2.31054
  Beta  occ. eigenvalues --   -1.05953  -1.05887  -0.97110  -0.96778  -0.88216
  Beta  occ. eigenvalues --   -0.87965  -0.84960  -0.80335  -0.78798  -0.77938
  Beta  occ. eigenvalues --   -0.77842  -0.75587  -0.75055  -0.72943  -0.71853
  Beta  occ. eigenvalues --   -0.66579  -0.65182  -0.64539  -0.64106  -0.62646
  Beta  occ. eigenvalues --   -0.61423  -0.58922  -0.57255  -0.56646  -0.54122
  Beta  occ. eigenvalues --   -0.53218  -0.51978  -0.49727  -0.49669  -0.49064
  Beta  occ. eigenvalues --   -0.48206  -0.47900  -0.47468  -0.46650  -0.46167
  Beta  occ. eigenvalues --   -0.45816  -0.45340  -0.45044  -0.44617  -0.44082
  Beta  occ. eigenvalues --   -0.42397  -0.41929  -0.41099  -0.38546  -0.38423
  Beta  occ. eigenvalues --   -0.38317  -0.37492  -0.36872  -0.36790  -0.36734
  Beta  occ. eigenvalues --   -0.35147  -0.34661  -0.34445  -0.33875  -0.31599
  Beta  occ. eigenvalues --   -0.28956  -0.26645  -0.25931  -0.24785  -0.24471
  Beta  occ. eigenvalues --   -0.22255  -0.21281  -0.20558  -0.20206  -0.16362
  Beta  occ. eigenvalues --   -0.15328  -0.14871
  Beta virt. eigenvalues --   -0.04488  -0.02458  -0.00639  -0.00090   0.00863
  Beta virt. eigenvalues --    0.01339   0.02028   0.03312   0.05361   0.05922
  Beta virt. eigenvalues --    0.06293   0.07334   0.08976   0.09319   0.10109
  Beta virt. eigenvalues --    0.10509   0.12621   0.13128   0.14198   0.14245
  Beta virt. eigenvalues --    0.15318   0.15643   0.15901   0.16034   0.16530
  Beta virt. eigenvalues --    0.16820   0.17100   0.17664   0.17905   0.18316
  Beta virt. eigenvalues --    0.19239   0.19253   0.19758   0.20384   0.22172
  Beta virt. eigenvalues --    0.22179   0.22620   0.22781   0.23015   0.23873
  Beta virt. eigenvalues --    0.25946   0.26049   0.26501   0.27734   0.27831
  Beta virt. eigenvalues --    0.28386   0.29370   0.29570   0.30717   0.31093
  Beta virt. eigenvalues --    0.31775   0.33282   0.33766   0.34518   0.34652
  Beta virt. eigenvalues --    0.36374   0.37770   0.38197   0.39573   0.39678
  Beta virt. eigenvalues --    0.41547   0.43112   0.44625   0.45373   0.46430
  Beta virt. eigenvalues --    0.47516   0.47819   0.50477   0.51322   0.51991
  Beta virt. eigenvalues --    0.52226   0.53564   0.53777   0.56008   0.56063
  Beta virt. eigenvalues --    0.56864   0.56896   0.57040   0.58135   0.58470
  Beta virt. eigenvalues --    0.58649   0.59066   0.59336   0.60168   0.61480
  Beta virt. eigenvalues --    0.61554   0.61897   0.63046   0.63120   0.63253
  Beta virt. eigenvalues --    0.63378   0.63418   0.63429   0.64049   0.64471
  Beta virt. eigenvalues --    0.65285   0.65982   0.66365   0.66921   0.67064
  Beta virt. eigenvalues --    0.67650   0.68285   0.68438   0.68965   0.70924
  Beta virt. eigenvalues --    0.72266   0.72545   0.74050   0.75928   0.76254
  Beta virt. eigenvalues --    0.76566   0.77121   0.78339   0.79865   0.80148
  Beta virt. eigenvalues --    0.81085   0.81984   0.82680   0.83441   0.83846
  Beta virt. eigenvalues --    0.84141   0.84401   0.85084   0.86601   0.86841
  Beta virt. eigenvalues --    0.86866   0.87285   0.87630   0.89864   0.90419
  Beta virt. eigenvalues --    0.90544   0.91487   0.91673   0.92129   0.92837
  Beta virt. eigenvalues --    0.93461   0.93763   0.95292   0.95634   0.95973
  Beta virt. eigenvalues --    0.96002   0.97249   0.97955   0.97971   0.98326
  Beta virt. eigenvalues --    0.98335   1.00130   1.00259   1.01751   1.02141
  Beta virt. eigenvalues --    1.02881   1.03523   1.04008   1.06391   1.07385
  Beta virt. eigenvalues --    1.09202   1.09740   1.11115   1.11152   1.13959
  Beta virt. eigenvalues --    1.15044   1.15653   1.16204   1.16740   1.18480
  Beta virt. eigenvalues --    1.18502   1.19147   1.20428   1.23718   1.24073
  Beta virt. eigenvalues --    1.24600   1.25524   1.27064   1.27236   1.28007
  Beta virt. eigenvalues --    1.29181   1.29490   1.30265   1.32929   1.33341
  Beta virt. eigenvalues --    1.33815   1.36170   1.36337   1.37357   1.39069
  Beta virt. eigenvalues --    1.40381   1.41643   1.42631   1.42756   1.42822
  Beta virt. eigenvalues --    1.44958   1.45116   1.45387   1.46471   1.47716
  Beta virt. eigenvalues --    1.47972   1.49275   1.49929   1.49934   1.51099
  Beta virt. eigenvalues --    1.51312   1.51321   1.53356   1.54945   1.57277
  Beta virt. eigenvalues --    1.57567   1.59652   1.61880   1.65681   1.65801
  Beta virt. eigenvalues --    1.65869   1.70453   1.72540   1.72872   1.76505
  Beta virt. eigenvalues --    1.77474   1.78661   1.79855   1.80086   1.82159
  Beta virt. eigenvalues --    1.82782   1.85802   1.87065   1.87175   1.87561
  Beta virt. eigenvalues --    1.88456   1.88582   1.90072   1.91210   1.92020
  Beta virt. eigenvalues --    1.93342   1.95184   1.95199   1.96485   1.97155
  Beta virt. eigenvalues --    1.98028   1.98558   1.98700   1.98832   1.99175
  Beta virt. eigenvalues --    1.99682   2.00310   2.01692   2.02429   2.03640
  Beta virt. eigenvalues --    2.06466   2.06720   2.07546   2.10079   2.10406
  Beta virt. eigenvalues --    2.12620   2.13125   2.14336   2.15209   2.15421
  Beta virt. eigenvalues --    2.16201   2.16693   2.16860   2.19062   2.19894
  Beta virt. eigenvalues --    2.20532   2.21471   2.21538   2.22438   2.23667
  Beta virt. eigenvalues --    2.24858   2.24894   2.26214   2.27225   2.27630
  Beta virt. eigenvalues --    2.27865   2.28139   2.28263   2.28459   2.28728
  Beta virt. eigenvalues --    2.32864   2.34851   2.38847   2.39896   2.40557
  Beta virt. eigenvalues --    2.40653   2.43973   2.44617   2.46608   2.46786
  Beta virt. eigenvalues --    2.51699   2.51790   2.52071   2.57172   2.58594
  Beta virt. eigenvalues --    2.59025   2.59808   2.60273   2.60587   2.62562
  Beta virt. eigenvalues --    2.64085   2.65047   2.66510   2.68103   2.69645
  Beta virt. eigenvalues --    2.69672   2.70413   2.72229   2.74550   2.74929
  Beta virt. eigenvalues --    2.75570   2.75620   2.77610   2.79015   2.80053
  Beta virt. eigenvalues --    2.80167   2.83410   2.85725   2.88301   2.88442
  Beta virt. eigenvalues --    2.93425   2.94226   2.97811   2.98207   3.00021
  Beta virt. eigenvalues --    3.00607   3.06290   3.07196   3.15579   3.19264
  Beta virt. eigenvalues --    3.19717   3.29489   3.40170   3.46614   3.47125
  Beta virt. eigenvalues --    3.52437   3.52767   3.61566   5.66742   5.67124
  Beta virt. eigenvalues --    5.67613   5.68449   5.68833   5.69818   5.71941
  Beta virt. eigenvalues --   45.82118  45.97361  46.02442  63.11814
          Condensed to atoms (all electrons):
               1          2          3          4          5          6
     1  C    5.103573   0.521891  -0.062065  -0.057639  -0.062067   0.521904
     2  C    0.521891   4.628675   0.522987  -0.016151  -0.040298  -0.018800
     3  C   -0.062065   0.522987   5.046924   0.535374  -0.033057  -0.040298
     4  C   -0.057639  -0.016151   0.535374   4.908937   0.535366  -0.016150
     5  C   -0.062067  -0.040298  -0.033057   0.535366   5.046942   0.522989
     6  C    0.521904  -0.018800  -0.040298  -0.016150   0.522989   4.628643
     7  H    0.006140  -0.040005   0.341088  -0.040328   0.004018   0.000861
     8  H    0.001483   0.002569  -0.035913   0.365476  -0.035913   0.002569
     9  H    0.006140   0.000861   0.004018  -0.040327   0.341088  -0.040004
    10  C    0.006028  -0.000037   0.000003   0.000124  -0.004977  -0.045967
    11  C    0.004572   0.002122  -0.000045   0.000027   0.003095  -0.063500
    12  C   -0.000660   0.000002  -0.000000   0.000001   0.000105   0.007091
    13  C    0.000133   0.000000  -0.000001   0.000046   0.002063  -0.003394
    14  C    0.000002  -0.000000   0.000000  -0.000000   0.000002  -0.000023
    15  C    0.000002  -0.000000   0.000000  -0.000001   0.000078   0.000061
    16  H   -0.000026   0.000001   0.000001   0.000088   0.000153   0.000771
    17  C    0.000000   0.000000   0.000000   0.000000  -0.000001  -0.000004
    18  H   -0.000000   0.000000   0.000000   0.000000  -0.000000   0.000002
    19  H   -0.000000   0.000000  -0.000000   0.000000   0.000001  -0.000003
    20  H    0.000000  -0.000000   0.000000  -0.000000  -0.000000  -0.000000
    21  C    0.006028  -0.045972  -0.004977   0.000124   0.000003  -0.000037
    22  C    0.004571  -0.063502   0.003094   0.000027  -0.000045   0.002122
    23  C   -0.000660   0.007091   0.000105   0.000001  -0.000000   0.000002
    24  C    0.000133  -0.003393   0.002063   0.000046  -0.000001   0.000000
    25  C    0.000002  -0.000023   0.000002  -0.000000   0.000000  -0.000000
    26  C    0.000002   0.000061   0.000078  -0.000001   0.000000  -0.000000
    27  H   -0.000026   0.000771   0.000154   0.000088   0.000001   0.000001
    28  C    0.000000  -0.000004  -0.000001   0.000000   0.000000   0.000000
    29  H   -0.000000   0.000002  -0.000000   0.000000   0.000000   0.000000
    30  H   -0.000000  -0.000003   0.000001   0.000000  -0.000000   0.000000
    31  H    0.000000  -0.000000  -0.000000  -0.000000   0.000000  -0.000000
    32  N   -0.039367   0.246242  -0.075984   0.004576   0.000127   0.006265
    33  N    0.001770   0.006203  -0.000148   0.000002   0.000000  -0.000038
    34  N   -0.039369   0.006265   0.000127   0.004576  -0.075987   0.246236
    35  N    0.001770  -0.000038   0.000000   0.000002  -0.000148   0.006203
    36  C   -0.000010   0.000000   0.000000  -0.000000   0.000002  -0.000033
    37  H   -0.000001  -0.000000   0.000000   0.000000  -0.000000   0.000004
    38  H   -0.000001  -0.000000   0.000000   0.000000  -0.000000   0.000004
    39  H   -0.000014   0.000001   0.000000  -0.000000   0.000000  -0.000008
    40  C   -0.000010  -0.000033   0.000002  -0.000000   0.000000   0.000000
    41  H   -0.000001   0.000004  -0.000000   0.000000   0.000000  -0.000000
    42  H   -0.000001   0.000004  -0.000000   0.000000   0.000000  -0.000000
    43  H   -0.000014  -0.000008   0.000000  -0.000000   0.000000   0.000001
    44  Co   0.256427  -0.059714   0.006641   0.002047   0.006641  -0.059712
               7          8          9         10         11         12
     1  C    0.006140   0.001483   0.006140   0.006028   0.004572  -0.000660
     2  C   -0.040005   0.002569   0.000861  -0.000037   0.002122   0.000002
     3  C    0.341088  -0.035913   0.004018   0.000003  -0.000045  -0.000000
     4  C   -0.040328   0.365476  -0.040327   0.000124   0.000027   0.000001
     5  C    0.004018  -0.035913   0.341088  -0.004977   0.003095   0.000105
     6  C    0.000861   0.002569  -0.040004  -0.045967  -0.063500   0.007091
     7  H    0.573129  -0.004175  -0.000093  -0.000000  -0.000000   0.000000
     8  H   -0.004175   0.551414  -0.004175  -0.000002   0.000001  -0.000000
     9  H   -0.000093  -0.004175   0.573125   0.000402  -0.000180  -0.000041
    10  C   -0.000000  -0.000002   0.000402   4.643791  -0.067445   0.515382
    11  C   -0.000000   0.000001  -0.000180  -0.067445   4.796776  -0.053945
    12  C    0.000000  -0.000000  -0.000041   0.515382  -0.053945   4.661773
    13  C   -0.000000   0.000002  -0.000351   0.536438   0.004367  -0.055998
    14  C   -0.000000   0.000000  -0.000000  -0.049123   0.004845   0.533103
    15  C   -0.000000   0.000000   0.000120  -0.006327  -0.000054  -0.037921
    16  H    0.000000  -0.000010   0.006415  -0.033186  -0.000152   0.003727
    17  C    0.000000  -0.000000   0.000002  -0.039125  -0.000056  -0.008847
    18  H    0.000000  -0.000000  -0.000000   0.003929  -0.000206  -0.037763
    19  H    0.000000   0.000000  -0.000008   0.001931   0.000003   0.000929
    20  H   -0.000000  -0.000000   0.000000   0.000891   0.000003   0.002298
    21  C    0.000402  -0.000002  -0.000000  -0.000000  -0.000007   0.000000
    22  C   -0.000180   0.000001  -0.000000  -0.000007  -0.012915  -0.000002
    23  C   -0.000041  -0.000000   0.000000   0.000000  -0.000002  -0.000000
    24  C   -0.000352   0.000002  -0.000000   0.000000   0.000000  -0.000000
    25  C   -0.000000   0.000000  -0.000000  -0.000000   0.000000   0.000000
    26  C    0.000120   0.000000  -0.000000  -0.000000  -0.000000   0.000000
    27  H    0.006414  -0.000010   0.000000   0.000000   0.000000  -0.000000
    28  C    0.000002  -0.000000   0.000000   0.000000  -0.000000  -0.000000
    29  H   -0.000000  -0.000000   0.000000   0.000000   0.000000  -0.000000
    30  H   -0.000008   0.000000   0.000000   0.000000   0.000000   0.000000
    31  H    0.000000  -0.000000  -0.000000   0.000000   0.000000   0.000000
    32  N   -0.003613  -0.000099   0.000008   0.000000   0.000279   0.000000
    33  N   -0.000000  -0.000000  -0.000000   0.000000   0.000027   0.000000
    34  N    0.000008  -0.000099  -0.003613   0.257226   0.352079  -0.041270
    35  N   -0.000000  -0.000000  -0.000000  -0.046398   0.304485   0.261850
    36  C   -0.000000   0.000000  -0.000000   0.005525  -0.044988  -0.048553
    37  H    0.000000  -0.000000   0.000000  -0.000135   0.000554  -0.001089
    38  H    0.000000  -0.000000   0.000000  -0.000135   0.000548  -0.001085
    39  H    0.000000   0.000000   0.000000   0.000014   0.000650   0.002651
    40  C   -0.000000   0.000000  -0.000000   0.000000   0.000014   0.000000
    41  H    0.000000  -0.000000   0.000000  -0.000000  -0.000000  -0.000000
    42  H    0.000000  -0.000000   0.000000  -0.000000  -0.000000  -0.000000
    43  H    0.000000   0.000000   0.000000   0.000000  -0.000002  -0.000000
    44  Co  -0.000588   0.000141  -0.000588   0.007218   0.361380   0.005872
              13         14         15         16         17         18
     1  C    0.000133   0.000002   0.000002  -0.000026   0.000000  -0.000000
     2  C    0.000000  -0.000000  -0.000000   0.000001   0.000000   0.000000
     3  C   -0.000001   0.000000   0.000000   0.000001   0.000000   0.000000
     4  C    0.000046  -0.000000  -0.000001   0.000088   0.000000   0.000000
     5  C    0.002063   0.000002   0.000078   0.000153  -0.000001  -0.000000
     6  C   -0.003394  -0.000023   0.000061   0.000771  -0.000004   0.000002
     7  H   -0.000000  -0.000000  -0.000000   0.000000   0.000000   0.000000
     8  H    0.000002   0.000000   0.000000  -0.000010  -0.000000  -0.000000
     9  H   -0.000351  -0.000000   0.000120   0.006415   0.000002  -0.000000
    10  C    0.536438  -0.049123  -0.006327  -0.033186  -0.039125   0.003929
    11  C    0.004367   0.004845  -0.000054  -0.000152  -0.000056  -0.000206
    12  C   -0.055998   0.533103  -0.037921   0.003727  -0.008847  -0.037763
    13  C    5.020317  -0.044788   0.511476   0.355730  -0.036291   0.000276
    14  C   -0.044788   5.028858  -0.037036   0.000434   0.517811   0.362230
    15  C    0.511476  -0.037036   4.896801  -0.035680   0.554747   0.003845
    16  H    0.355730   0.000434  -0.035680   0.510108   0.003656   0.000013
    17  C   -0.036291   0.517811   0.554747   0.003656   4.889782  -0.035230
    18  H    0.000276   0.362230   0.003845   0.000013  -0.035230   0.532551
    19  H   -0.035527   0.003942   0.368940  -0.003923  -0.035969  -0.000144
    20  H    0.003990  -0.036704  -0.036302  -0.000146   0.368564  -0.004164
    21  C    0.000000  -0.000000  -0.000000   0.000000   0.000000   0.000000
    22  C    0.000000   0.000000  -0.000000   0.000000  -0.000000   0.000000
    23  C   -0.000000   0.000000   0.000000  -0.000000  -0.000000  -0.000000
    24  C    0.000000  -0.000000   0.000000   0.000000   0.000000   0.000000
    25  C   -0.000000  -0.000000   0.000000  -0.000000  -0.000000   0.000000
    26  C    0.000000   0.000000  -0.000000  -0.000000  -0.000000   0.000000
    27  H    0.000000  -0.000000  -0.000000   0.000000   0.000000  -0.000000
    28  C    0.000000  -0.000000  -0.000000   0.000000   0.000000   0.000000
    29  H    0.000000   0.000000   0.000000  -0.000000   0.000000  -0.000000
    30  H   -0.000000  -0.000000   0.000000  -0.000000   0.000000   0.000000
    31  H   -0.000000   0.000000   0.000000  -0.000000   0.000000   0.000000
    32  N   -0.000000   0.000000   0.000000   0.000000   0.000000  -0.000000
    33  N    0.000000  -0.000000  -0.000000   0.000000   0.000000  -0.000000
    34  N   -0.076248   0.009389   0.005105  -0.004989  -0.000195  -0.000094
    35  N    0.009599  -0.082274  -0.000190  -0.000096   0.005360  -0.007283
    36  C   -0.000118  -0.002687   0.000009   0.000003  -0.000110   0.004239
    37  H   -0.000009   0.002541  -0.000001  -0.000000  -0.000004   0.000519
    38  H   -0.000009   0.002539  -0.000001  -0.000000  -0.000004   0.000517
    39  H    0.000005   0.000011  -0.000000  -0.000000   0.000001  -0.000033
    40  C    0.000000   0.000000  -0.000000   0.000000   0.000000  -0.000000
    41  H   -0.000000  -0.000000   0.000000  -0.000000   0.000000  -0.000000
    42  H   -0.000000  -0.000000   0.000000  -0.000000   0.000000  -0.000000
    43  H    0.000000   0.000000  -0.000000   0.000000  -0.000000   0.000000
    44  Co  -0.001288  -0.001380   0.000170   0.000045   0.000152   0.000024
              19         20         21         22         23         24
     1  C   -0.000000   0.000000   0.006028   0.004571  -0.000660   0.000133
     2  C    0.000000  -0.000000  -0.045972  -0.063502   0.007091  -0.003393
     3  C   -0.000000   0.000000  -0.004977   0.003094   0.000105   0.002063
     4  C    0.000000  -0.000000   0.000124   0.000027   0.000001   0.000046
     5  C    0.000001  -0.000000   0.000003  -0.000045  -0.000000  -0.000001
     6  C   -0.000003  -0.000000  -0.000037   0.002122   0.000002   0.000000
     7  H    0.000000  -0.000000   0.000402  -0.000180  -0.000041  -0.000352
     8  H    0.000000  -0.000000  -0.000002   0.000001  -0.000000   0.000002
     9  H   -0.000008   0.000000  -0.000000  -0.000000   0.000000  -0.000000
    10  C    0.001931   0.000891  -0.000000  -0.000007   0.000000   0.000000
    11  C    0.000003   0.000003  -0.000007  -0.012915  -0.000002   0.000000
    12  C    0.000929   0.002298   0.000000  -0.000002  -0.000000  -0.000000
    13  C   -0.035527   0.003990   0.000000   0.000000  -0.000000   0.000000
    14  C    0.003942  -0.036704  -0.000000   0.000000   0.000000  -0.000000
    15  C    0.368940  -0.036302  -0.000000  -0.000000   0.000000   0.000000
    16  H   -0.003923  -0.000146   0.000000   0.000000  -0.000000   0.000000
    17  C   -0.035969   0.368564   0.000000  -0.000000  -0.000000   0.000000
    18  H   -0.000144  -0.004164   0.000000   0.000000  -0.000000   0.000000
    19  H    0.530523  -0.004558   0.000000   0.000000   0.000000  -0.000000
    20  H   -0.004558   0.535005   0.000000   0.000000   0.000000  -0.000000
    21  C    0.000000   0.000000   4.643862  -0.067450   0.515383   0.536427
    22  C    0.000000   0.000000  -0.067450   4.796776  -0.053940   0.004367
    23  C    0.000000   0.000000   0.515383  -0.053940   4.661719  -0.055992
    24  C   -0.000000  -0.000000   0.536427   0.004367  -0.055992   5.020274
    25  C   -0.000000   0.000000  -0.049129   0.004846   0.533113  -0.044786
    26  C    0.000000   0.000000  -0.006332  -0.000054  -0.037920   0.511490
    27  H   -0.000000  -0.000000  -0.033189  -0.000152   0.003727   0.355736
    28  C    0.000000   0.000000  -0.039125  -0.000056  -0.008844  -0.036292
    29  H    0.000000   0.000000   0.003929  -0.000205  -0.037762   0.000276
    30  H    0.000000   0.000000   0.001931   0.000003   0.000930  -0.035530
    31  H    0.000000   0.000000   0.000891   0.000003   0.002297   0.003990
    32  N    0.000000   0.000000   0.257235   0.352072  -0.041273  -0.076238
    33  N   -0.000000  -0.000000  -0.046395   0.304492   0.261844   0.009598
    34  N   -0.000090   0.000003   0.000000   0.000279   0.000000  -0.000000
    35  N    0.000004  -0.000099   0.000000   0.000027   0.000000   0.000000
    36  C   -0.000000  -0.000002   0.000000   0.000014   0.000000   0.000000
    37  H   -0.000000  -0.000000  -0.000000  -0.000000  -0.000000  -0.000000
    38  H   -0.000000  -0.000000  -0.000000  -0.000000  -0.000000  -0.000000
    39  H   -0.000000  -0.000000   0.000000  -0.000002  -0.000000   0.000000
    40  C    0.000000  -0.000000   0.005526  -0.044988  -0.048552  -0.000118
    41  H   -0.000000   0.000000  -0.000135   0.000548  -0.001085  -0.000009
    42  H   -0.000000   0.000000  -0.000135   0.000554  -0.001089  -0.000009
    43  H   -0.000000   0.000000   0.000014   0.000650   0.002651   0.000005
    44  Co   0.000013  -0.000011   0.007219   0.361380   0.005872  -0.001288
              25         26         27         28         29         30
     1  C    0.000002   0.000002  -0.000026   0.000000  -0.000000  -0.000000
     2  C   -0.000023   0.000061   0.000771  -0.000004   0.000002  -0.000003
     3  C    0.000002   0.000078   0.000154  -0.000001  -0.000000   0.000001
     4  C   -0.000000  -0.000001   0.000088   0.000000   0.000000   0.000000
     5  C    0.000000   0.000000   0.000001   0.000000   0.000000  -0.000000
     6  C   -0.000000  -0.000000   0.000001   0.000000   0.000000   0.000000
     7  H   -0.000000   0.000120   0.006414   0.000002  -0.000000  -0.000008
     8  H    0.000000   0.000000  -0.000010  -0.000000  -0.000000   0.000000
     9  H   -0.000000  -0.000000   0.000000   0.000000   0.000000   0.000000
    10  C   -0.000000  -0.000000   0.000000   0.000000   0.000000   0.000000
    11  C    0.000000  -0.000000   0.000000  -0.000000   0.000000   0.000000
    12  C    0.000000   0.000000  -0.000000  -0.000000  -0.000000   0.000000
    13  C   -0.000000   0.000000   0.000000   0.000000   0.000000  -0.000000
    14  C   -0.000000   0.000000  -0.000000  -0.000000   0.000000  -0.000000
    15  C    0.000000  -0.000000  -0.000000  -0.000000   0.000000   0.000000
    16  H   -0.000000  -0.000000   0.000000   0.000000  -0.000000  -0.000000
    17  C   -0.000000  -0.000000   0.000000   0.000000   0.000000   0.000000
    18  H    0.000000   0.000000  -0.000000   0.000000  -0.000000   0.000000
    19  H   -0.000000   0.000000  -0.000000   0.000000   0.000000   0.000000
    20  H    0.000000   0.000000  -0.000000   0.000000   0.000000   0.000000
    21  C   -0.049129  -0.006332  -0.033189  -0.039125   0.003929   0.001931
    22  C    0.004846  -0.000054  -0.000152  -0.000056  -0.000205   0.000003
    23  C    0.533113  -0.037920   0.003727  -0.008844  -0.037762   0.000930
    24  C   -0.044786   0.511490   0.355736  -0.036292   0.000276  -0.035530
    25  C    5.028893  -0.037036   0.000434   0.517797   0.362228   0.003942
    26  C   -0.037036   4.896788  -0.035680   0.554749   0.003845   0.368937
    27  H    0.000434  -0.035680   0.510107   0.003656   0.000013  -0.003923
    28  C    0.517797   0.554749   0.003656   4.889791  -0.035229  -0.035969
    29  H    0.362228   0.003845   0.000013  -0.035229   0.532549  -0.000144
    30  H    0.003942   0.368937  -0.003923  -0.035969  -0.000144   0.530530
    31  H   -0.036702  -0.036301  -0.000146   0.368566  -0.004164  -0.004558
    32  N    0.009389   0.005105  -0.004988  -0.000195  -0.000094  -0.000090
    33  N   -0.082281  -0.000190  -0.000096   0.005360  -0.007284   0.000004
    34  N    0.000000   0.000000   0.000000   0.000000  -0.000000   0.000000
    35  N   -0.000000  -0.000000   0.000000   0.000000  -0.000000  -0.000000
    36  C    0.000000  -0.000000   0.000000   0.000000  -0.000000   0.000000
    37  H   -0.000000   0.000000  -0.000000   0.000000  -0.000000  -0.000000
    38  H   -0.000000   0.000000  -0.000000   0.000000  -0.000000  -0.000000
    39  H    0.000000  -0.000000   0.000000  -0.000000   0.000000  -0.000000
    40  C   -0.002686   0.000009   0.000003  -0.000110   0.004239  -0.000000
    41  H    0.002539  -0.000001  -0.000000  -0.000004   0.000517  -0.000000
    42  H    0.002541  -0.000001  -0.000000  -0.000004   0.000519  -0.000000
    43  H    0.000011  -0.000000  -0.000000   0.000001  -0.000033  -0.000000
    44  Co  -0.001380   0.000170   0.000044   0.000152   0.000024   0.000013
              31         32         33         34         35         36
     1  C    0.000000  -0.039367   0.001770  -0.039369   0.001770  -0.000010
     2  C   -0.000000   0.246242   0.006203   0.006265  -0.000038   0.000000
     3  C   -0.000000  -0.075984  -0.000148   0.000127   0.000000   0.000000
     4  C   -0.000000   0.004576   0.000002   0.004576   0.000002  -0.000000
     5  C    0.000000   0.000127   0.000000  -0.075987  -0.000148   0.000002
     6  C   -0.000000   0.006265  -0.000038   0.246236   0.006203  -0.000033
     7  H    0.000000  -0.003613  -0.000000   0.000008  -0.000000  -0.000000
     8  H   -0.000000  -0.000099  -0.000000  -0.000099  -0.000000   0.000000
     9  H   -0.000000   0.000008  -0.000000  -0.003613  -0.000000  -0.000000
    10  C    0.000000   0.000000   0.000000   0.257226  -0.046398   0.005525
    11  C    0.000000   0.000279   0.000027   0.352079   0.304485  -0.044988
    12  C    0.000000   0.000000   0.000000  -0.041270   0.261850  -0.048553
    13  C   -0.000000  -0.000000   0.000000  -0.076248   0.009599  -0.000118
    14  C    0.000000   0.000000  -0.000000   0.009389  -0.082274  -0.002687
    15  C    0.000000   0.000000  -0.000000   0.005105  -0.000190   0.000009
    16  H   -0.000000   0.000000   0.000000  -0.004989  -0.000096   0.000003
    17  C    0.000000   0.000000   0.000000  -0.000195   0.005360  -0.000110
    18  H    0.000000  -0.000000  -0.000000  -0.000094  -0.007283   0.004239
    19  H    0.000000   0.000000  -0.000000  -0.000090   0.000004  -0.000000
    20  H    0.000000   0.000000  -0.000000   0.000003  -0.000099  -0.000002
    21  C    0.000891   0.257235  -0.046395   0.000000   0.000000   0.000000
    22  C    0.000003   0.352072   0.304492   0.000279   0.000027   0.000014
    23  C    0.002297  -0.041273   0.261844   0.000000   0.000000   0.000000
    24  C    0.003990  -0.076238   0.009598  -0.000000   0.000000   0.000000
    25  C   -0.036702   0.009389  -0.082281   0.000000  -0.000000   0.000000
    26  C   -0.036301   0.005105  -0.000190   0.000000  -0.000000  -0.000000
    27  H   -0.000146  -0.004988  -0.000096   0.000000   0.000000   0.000000
    28  C    0.368566  -0.000195   0.005360   0.000000   0.000000   0.000000
    29  H   -0.004164  -0.000094  -0.007284  -0.000000  -0.000000  -0.000000
    30  H   -0.004558  -0.000090   0.000004   0.000000  -0.000000   0.000000
    31  H    0.534998   0.000003  -0.000099   0.000000  -0.000000  -0.000000
    32  N    0.000003   7.211963  -0.060797  -0.000071   0.000000   0.000000
    33  N   -0.000099  -0.060797   7.062845   0.000000  -0.000000  -0.000000
    34  N    0.000000  -0.000071   0.000000   7.212011  -0.060799   0.004644
    35  N   -0.000000   0.000000  -0.000000  -0.060799   7.062830   0.299969
    36  C   -0.000000   0.000000  -0.000000   0.004644   0.299969   5.060385
    37  H    0.000000   0.000000   0.000000  -0.000066  -0.041496   0.377266
    38  H    0.000000   0.000000   0.000000  -0.000066  -0.041499   0.377273
    39  H    0.000000  -0.000000   0.000001   0.000157  -0.032267   0.376213
    40  C   -0.000002   0.004644   0.299966   0.000000  -0.000000   0.000000
    41  H   -0.000000  -0.000066  -0.041498   0.000000   0.000000  -0.000000
    42  H   -0.000000  -0.000066  -0.041495   0.000000   0.000000  -0.000000
    43  H   -0.000000   0.000157  -0.032268  -0.000000   0.000001  -0.000001
    44  Co  -0.000011  -0.073093  -0.054938  -0.073095  -0.054938  -0.007302
              37         38         39         40         41         42
     1  C   -0.000001  -0.000001  -0.000014  -0.000010  -0.000001  -0.000001
     2  C   -0.000000  -0.000000   0.000001  -0.000033   0.000004   0.000004
     3  C    0.000000   0.000000   0.000000   0.000002  -0.000000  -0.000000
     4  C    0.000000   0.000000  -0.000000  -0.000000   0.000000   0.000000
     5  C   -0.000000  -0.000000   0.000000   0.000000   0.000000   0.000000
     6  C    0.000004   0.000004  -0.000008   0.000000  -0.000000  -0.000000
     7  H    0.000000   0.000000   0.000000  -0.000000   0.000000   0.000000
     8  H   -0.000000  -0.000000   0.000000   0.000000  -0.000000  -0.000000
     9  H    0.000000   0.000000   0.000000  -0.000000   0.000000   0.000000
    10  C   -0.000135  -0.000135   0.000014   0.000000  -0.000000  -0.000000
    11  C    0.000554   0.000548   0.000650   0.000014  -0.000000  -0.000000
    12  C   -0.001089  -0.001085   0.002651   0.000000  -0.000000  -0.000000
    13  C   -0.000009  -0.000009   0.000005   0.000000  -0.000000  -0.000000
    14  C    0.002541   0.002539   0.000011   0.000000  -0.000000  -0.000000
    15  C   -0.000001  -0.000001  -0.000000  -0.000000   0.000000   0.000000
    16  H   -0.000000  -0.000000  -0.000000   0.000000  -0.000000  -0.000000
    17  C   -0.000004  -0.000004   0.000001   0.000000   0.000000   0.000000
    18  H    0.000519   0.000517  -0.000033  -0.000000  -0.000000  -0.000000
    19  H   -0.000000  -0.000000  -0.000000   0.000000  -0.000000  -0.000000
    20  H   -0.000000  -0.000000  -0.000000  -0.000000   0.000000   0.000000
    21  C   -0.000000  -0.000000   0.000000   0.005526  -0.000135  -0.000135
    22  C   -0.000000  -0.000000  -0.000002  -0.044988   0.000548   0.000554
    23  C   -0.000000  -0.000000  -0.000000  -0.048552  -0.001085  -0.001089
    24  C   -0.000000  -0.000000   0.000000  -0.000118  -0.000009  -0.000009
    25  C   -0.000000  -0.000000   0.000000  -0.002686   0.002539   0.002541
    26  C    0.000000   0.000000  -0.000000   0.000009  -0.000001  -0.000001
    27  H   -0.000000  -0.000000   0.000000   0.000003  -0.000000  -0.000000
    28  C    0.000000   0.000000  -0.000000  -0.000110  -0.000004  -0.000004
    29  H   -0.000000  -0.000000   0.000000   0.004239   0.000517   0.000519
    30  H   -0.000000  -0.000000  -0.000000  -0.000000  -0.000000  -0.000000
    31  H    0.000000   0.000000   0.000000  -0.000002  -0.000000  -0.000000
    32  N    0.000000   0.000000  -0.000000   0.004644  -0.000066  -0.000066
    33  N    0.000000   0.000000   0.000001   0.299966  -0.041498  -0.041495
    34  N   -0.000066  -0.000066   0.000157   0.000000   0.000000   0.000000
    35  N   -0.041496  -0.041499  -0.032267  -0.000000   0.000000   0.000000
    36  C    0.377266   0.377273   0.376213   0.000000  -0.000000  -0.000000
    37  H    0.523998  -0.039968  -0.024965  -0.000000   0.000000  -0.000000
    38  H   -0.039968   0.523995  -0.024972  -0.000000  -0.000000   0.000000
    39  H   -0.024965  -0.024972   0.468452  -0.000001   0.000000   0.000000
    40  C   -0.000000  -0.000000  -0.000001   5.060384   0.377273   0.377266
    41  H    0.000000  -0.000000   0.000000   0.377273   0.523992  -0.039968
    42  H   -0.000000   0.000000   0.000000   0.377266  -0.039968   0.523996
    43  H    0.000000   0.000000  -0.000024   0.376213  -0.024972  -0.024964
    44  Co   0.000653   0.000656   0.008468  -0.007302   0.000656   0.000653
              43         44
     1  C   -0.000014   0.256427
     2  C   -0.000008  -0.059714
     3  C    0.000000   0.006641
     4  C   -0.000000   0.002047
     5  C    0.000000   0.006641
     6  C    0.000001  -0.059712
     7  H    0.000000  -0.000588
     8  H    0.000000   0.000141
     9  H    0.000000  -0.000588
    10  C    0.000000   0.007218
    11  C   -0.000002   0.361380
    12  C   -0.000000   0.005872
    13  C    0.000000  -0.001288
    14  C    0.000000  -0.001380
    15  C   -0.000000   0.000170
    16  H    0.000000   0.000045
    17  C   -0.000000   0.000152
    18  H    0.000000   0.000024
    19  H   -0.000000   0.000013
    20  H    0.000000  -0.000011
    21  C    0.000014   0.007219
    22  C    0.000650   0.361380
    23  C    0.002651   0.005872
    24  C    0.000005  -0.001288
    25  C    0.000011  -0.001380
    26  C   -0.000000   0.000170
    27  H   -0.000000   0.000044
    28  C    0.000001   0.000152
    29  H   -0.000033   0.000024
    30  H   -0.000000   0.000013
    31  H   -0.000000  -0.000011
    32  N    0.000157  -0.073093
    33  N   -0.032268  -0.054938
    34  N   -0.000000  -0.073095
    35  N    0.000001  -0.054938
    36  C   -0.000001  -0.007302
    37  H    0.000000   0.000653
    38  H    0.000000   0.000656
    39  H   -0.000024   0.008468
    40  C    0.376213  -0.007302
    41  H   -0.024972   0.000656
    42  H   -0.024964   0.000653
    43  H    0.468454   0.008468
    44  Co   0.008468  16.484791
          Atomic-Atomic Spin Densities.
               1          2          3          4          5          6
     1  C   -0.000004   0.000000   0.000000   0.000000   0.000000   0.000000
     2  C    0.000000   0.000000  -0.000000  -0.000000  -0.000000   0.000000
     3  C    0.000000  -0.000000  -0.000000   0.000000   0.000000  -0.000000
     4  C    0.000000  -0.000000   0.000000  -0.000000   0.000000  -0.000000
     5  C    0.000000  -0.000000   0.000000   0.000000  -0.000000  -0.000000
     6  C    0.000000   0.000000  -0.000000  -0.000000  -0.000000   0.000000
     7  H   -0.000000   0.000000   0.000000   0.000000  -0.000000   0.000000
     8  H    0.000000   0.000000  -0.000000  -0.000000  -0.000000   0.000000
     9  H   -0.000000   0.000000  -0.000000   0.000000   0.000000   0.000000
    10  C   -0.000000   0.000000   0.000000  -0.000000  -0.000000  -0.000000
    11  C    0.000000  -0.000000   0.000000  -0.000000   0.000000   0.000000
    12  C    0.000000   0.000000  -0.000000  -0.000000  -0.000000  -0.000000
    13  C   -0.000000  -0.000000   0.000000  -0.000000  -0.000000  -0.000000
    14  C   -0.000000  -0.000000   0.000000  -0.000000  -0.000000  -0.000000
    15  C   -0.000000  -0.000000   0.000000  -0.000000   0.000000   0.000000
    16  H   -0.000000   0.000000  -0.000000   0.000000  -0.000000   0.000000
    17  C    0.000000   0.000000  -0.000000  -0.000000  -0.000000  -0.000000
    18  H    0.000000  -0.000000  -0.000000   0.000000   0.000000  -0.000000
    19  H    0.000000   0.000000  -0.000000   0.000000  -0.000000  -0.000000
    20  H   -0.000000   0.000000   0.000000  -0.000000  -0.000000  -0.000000
    21  C   -0.000000  -0.000000  -0.000000  -0.000000   0.000000   0.000000
    22  C    0.000000   0.000000   0.000000  -0.000000   0.000000  -0.000000
    23  C    0.000000  -0.000000  -0.000000  -0.000000  -0.000000   0.000000
    24  C   -0.000000  -0.000000  -0.000000  -0.000000   0.000000  -0.000000
    25  C   -0.000000  -0.000000  -0.000000  -0.000000   0.000000  -0.000000
    26  C   -0.000000   0.000000   0.000000  -0.000000   0.000000  -0.000000
    27  H   -0.000000   0.000000  -0.000000   0.000000  -0.000000   0.000000
    28  C    0.000000  -0.000000  -0.000000  -0.000000  -0.000000   0.000000
    29  H    0.000000  -0.000000   0.000000   0.000000  -0.000000  -0.000000
    30  H    0.000000  -0.000000  -0.000000   0.000000  -0.000000   0.000000
    31  H   -0.000000  -0.000000  -0.000000  -0.000000   0.000000   0.000000
    32  N   -0.000000  -0.000000   0.000000   0.000000  -0.000000   0.000000
    33  N   -0.000000  -0.000000  -0.000000  -0.000000   0.000000  -0.000000
    34  N   -0.000000   0.000000  -0.000000   0.000000   0.000000  -0.000000
    35  N   -0.000000  -0.000000   0.000000  -0.000000  -0.000000  -0.000000
    36  C   -0.000000   0.000000   0.000000  -0.000000   0.000000   0.000000
    37  H   -0.000000   0.000000  -0.000000  -0.000000  -0.000000  -0.000000
    38  H    0.000000  -0.000000   0.000000   0.000000   0.000000   0.000000
    39  H    0.000000   0.000000  -0.000000   0.000000   0.000000  -0.000000
    40  C   -0.000000   0.000000   0.000000  -0.000000   0.000000   0.000000
    41  H    0.000000   0.000000   0.000000   0.000000   0.000000  -0.000000
    42  H   -0.000000  -0.000000  -0.000000  -0.000000  -0.000000   0.000000
    43  H    0.000000  -0.000000   0.000000   0.000000  -0.000000   0.000000
    44  Co   0.000001  -0.000000   0.000000   0.000000   0.000000  -0.000000
               7          8          9         10         11         12
     1  C   -0.000000   0.000000  -0.000000  -0.000000   0.000000   0.000000
     2  C    0.000000   0.000000   0.000000   0.000000  -0.000000   0.000000
     3  C    0.000000  -0.000000  -0.000000   0.000000   0.000000  -0.000000
     4  C    0.000000  -0.000000   0.000000  -0.000000  -0.000000  -0.000000
     5  C   -0.000000  -0.000000   0.000000  -0.000000   0.000000  -0.000000
     6  C    0.000000   0.000000   0.000000  -0.000000   0.000000  -0.000000
     7  H   -0.000000   0.000000  -0.000000   0.000000  -0.000000   0.000000
     8  H    0.000000   0.000000   0.000000   0.000000  -0.000000   0.000000
     9  H   -0.000000   0.000000  -0.000000   0.000000  -0.000000   0.000000
    10  C    0.000000   0.000000   0.000000   0.000000  -0.000000   0.000000
    11  C   -0.000000  -0.000000  -0.000000  -0.000000  -0.000001  -0.000000
    12  C    0.000000   0.000000   0.000000   0.000000  -0.000000   0.000000
    13  C    0.000000  -0.000000   0.000000  -0.000000  -0.000000  -0.000000
    14  C    0.000000  -0.000000   0.000000   0.000000   0.000000  -0.000000
    15  C   -0.000000  -0.000000   0.000000   0.000000   0.000000  -0.000000
    16  H    0.000000   0.000000   0.000000   0.000000  -0.000000   0.000000
    17  C    0.000000   0.000000   0.000000  -0.000000  -0.000000   0.000000
    18  H   -0.000000   0.000000  -0.000000  -0.000000  -0.000000  -0.000000
    19  H    0.000000   0.000000   0.000000  -0.000000  -0.000000   0.000000
    20  H    0.000000   0.000000   0.000000   0.000000   0.000000  -0.000000
    21  C    0.000000   0.000000   0.000000   0.000000  -0.000000   0.000000
    22  C   -0.000000  -0.000000  -0.000000  -0.000000  -0.000000  -0.000000
    23  C    0.000000   0.000000   0.000000   0.000000  -0.000000  -0.000000
    24  C    0.000000  -0.000000   0.000000  -0.000000   0.000000   0.000000
    25  C    0.000000  -0.000000   0.000000  -0.000000   0.000000   0.000000
    26  C    0.000000  -0.000000  -0.000000  -0.000000  -0.000000   0.000000
    27  H    0.000000   0.000000   0.000000   0.000000  -0.000000   0.000000
    28  C    0.000000   0.000000   0.000000   0.000000  -0.000000   0.000000
    29  H   -0.000000   0.000000  -0.000000   0.000000  -0.000000  -0.000000
    30  H    0.000000   0.000000   0.000000   0.000000   0.000000  -0.000000
    31  H    0.000000   0.000000   0.000000  -0.000000   0.000000   0.000000
    32  N   -0.000000   0.000000   0.000000   0.000000  -0.000000  -0.000000
    33  N    0.000000   0.000000   0.000000  -0.000000   0.000000   0.000000
    34  N   -0.000000   0.000000  -0.000000   0.000000   0.000000  -0.000000
    35  N    0.000000   0.000000   0.000000  -0.000000   0.000000   0.000000
    36  C    0.000000  -0.000000  -0.000000  -0.000000   0.000000  -0.000000
    37  H    0.000000   0.000000   0.000000   0.000000   0.000000   0.000000
    38  H   -0.000000  -0.000000  -0.000000  -0.000000  -0.000000  -0.000000
    39  H   -0.000000   0.000000  -0.000000   0.000000  -0.000000  -0.000000
    40  C   -0.000000  -0.000000   0.000000  -0.000000   0.000000   0.000000
    41  H   -0.000000  -0.000000  -0.000000   0.000000  -0.000000  -0.000000
    42  H    0.000000   0.000000   0.000000   0.000000   0.000000   0.000000
    43  H   -0.000000   0.000000  -0.000000   0.000000  -0.000000  -0.000000
    44  Co  -0.000000  -0.000000  -0.000000  -0.000000  -0.000001  -0.000000
              13         14         15         16         17         18
     1  C   -0.000000  -0.000000  -0.000000  -0.000000   0.000000   0.000000
     2  C   -0.000000  -0.000000  -0.000000   0.000000   0.000000  -0.000000
     3  C    0.000000   0.000000   0.000000  -0.000000  -0.000000  -0.000000
     4  C   -0.000000  -0.000000  -0.000000   0.000000  -0.000000   0.000000
     5  C   -0.000000  -0.000000   0.000000  -0.000000  -0.000000   0.000000
     6  C   -0.000000  -0.000000   0.000000   0.000000  -0.000000  -0.000000
     7  H    0.000000   0.000000  -0.000000   0.000000   0.000000  -0.000000
     8  H   -0.000000  -0.000000  -0.000000   0.000000   0.000000   0.000000
     9  H    0.000000   0.000000   0.000000   0.000000   0.000000  -0.000000
    10  C   -0.000000   0.000000   0.000000   0.000000  -0.000000  -0.000000
    11  C   -0.000000   0.000000   0.000000  -0.000000  -0.000000  -0.000000
    12  C   -0.000000  -0.000000  -0.000000   0.000000   0.000000  -0.000000
    13  C   -0.000000  -0.000000   0.000000   0.000000   0.000000   0.000000
    14  C   -0.000000  -0.000000   0.000000   0.000000   0.000000   0.000000
    15  C    0.000000   0.000000  -0.000000  -0.000000  -0.000000  -0.000000
[...]
    40 C(13)  Bbb     0.0000     0.000     0.000     0.000  0.3748  0.9242 -0.0733
              Bcc     0.0000     0.000     0.000     0.000  0.3180 -0.0539  0.9466
 
              Baa    -0.0000    -0.000    -0.000    -0.000 -0.1579 -0.4717  0.8675
    41 H(1)   Bbb    -0.0000    -0.000    -0.000    -0.000 -0.4997  0.7959  0.3418
              Bcc     0.0000     0.000     0.000     0.000  0.8517  0.3796  0.3614
 
              Baa    -0.0000    -0.000    -0.000    -0.000  0.9998  0.0183  0.0097
    42 H(1)   Bbb     0.0000     0.000     0.000     0.000 -0.0120  0.8934 -0.4491
              Bcc     0.0000     0.000     0.000     0.000 -0.0169  0.4489  0.8934
 
              Baa    -0.0000    -0.000    -0.000    -0.000  0.8116 -0.1240 -0.5709
    43 H(1)   Bbb    -0.0000    -0.000    -0.000    -0.000 -0.2921  0.7602 -0.5804
              Bcc     0.0000     0.000     0.000     0.000  0.5060  0.6378  0.5807
 
              Baa    -0.0001    -0.015    -0.005    -0.005  1.0000 -0.0018 -0.0037
    44 Co(59) Bbb    -0.0000    -0.004    -0.001    -0.001  0.0040  0.6564  0.7544
              Bcc     0.0001     0.018     0.007     0.006 -0.0011  0.7544 -0.6564
 

 ---------------------------------------------------------------------------------

   1 Symmetry operations used in ECPInt.
 ECPInt:  NShTT=   11781 NPrTT=   71406 LenC2=    9522 LenP2D=   32032.
 LDataN:  DoStor=T MaxTD1= 7 Len=  274
 Calling FoFJK, ICntrl=      2127 FMM=F ISym2X=0 I1Cent= 0 IOpClX= 1 NMat=1 NMatS=1 NMatT=0.
 -------------------------------------------------------------------
 Center     Atomic                   Forces (Hartrees/Bohr)
 Number     Number              X              Y              Z
 -------------------------------------------------------------------
      1        6          -0.000019001   -0.086516693   -0.000004795
      2        6           0.069385853    0.042338443    0.000003008
      3        6          -0.005337898    0.002968569    0.000000861
      4        6           0.000007511    0.002137414   -0.000000852
      5        6           0.005327447    0.002985754    0.000000775
      6        6          -0.069349168    0.042314343    0.000001807
      7        1          -0.000831437    0.005554033   -0.000000692
      8        1          -0.000000144   -0.000163206   -0.000000360
      9        1           0.000831205    0.005552711   -0.000000715
     10        6          -0.010563421   -0.005537836    0.000000523
     11        6           0.000130267    0.005056648   -0.000018825
     12        6           0.011518030    0.005876267   -0.000000325
     13        6           0.011785632    0.003192583   -0.000001326
     14        6           0.003331814    0.005519562   -0.000000769
     15        6          -0.012138468    0.007034399    0.000000971
     16        1           0.000205331    0.000140070   -0.000000283
     17        6          -0.000192917   -0.012100799   -0.000000084
     18        1           0.000768592    0.000345564    0.000000070
     19        1           0.000366630   -0.000126722   -0.000000113
     20        1           0.000466618    0.000042128    0.000000138
     21        6           0.010512028   -0.005471371   -0.000000471
     22        6          -0.000120456    0.005057523   -0.000021305
     23        6          -0.011451200    0.005872636   -0.000000762
     24        6          -0.011745132    0.003126863   -0.000000870
     25        6          -0.003389664    0.005517759   -0.000001104
     26        6           0.012121890    0.007054233    0.000000344
     27        1          -0.000201862    0.000157477   -0.000000136
     28        6           0.000212876   -0.012120125    0.000000198
     29        1          -0.000763185    0.000352651   -0.000000155
     30        1          -0.000362235   -0.000133433   -0.000000119
     31        1          -0.000471709    0.000041607    0.000000170
     32        7          -0.023605278   -0.062161745    0.000008245
     33        7           0.026051556    0.022580838    0.000012043
     34        7           0.023590922   -0.062131514    0.000005116
     35        7          -0.026075102    0.022585800    0.000010208
     36        6          -0.000258567   -0.010805348   -0.000000809
     37        1           0.000744768    0.001412155    0.000747281
     38        1           0.000744125    0.001413438   -0.000748661
     39        1           0.000748480    0.002372837    0.000001457
     40        6           0.000266856   -0.010799749   -0.000000882
     41        1          -0.000744989    0.001413922   -0.000747331
     42        1          -0.000746006    0.001411971    0.000745560
     43        1          -0.000750107    0.002371839    0.000001675
     44       27          -0.000000487    0.054266502    0.000011294
 -------------------------------------------------------------------
 Cartesian Forces:  Max     0.086516693 RMS     0.016740066

 GradGradGradGradGradGradGradGradGradGradGradGradGradGradGradGradGradGrad
 Berny optimization.
 Search for a local minimum.
 Step number   1 out of a maximum of    2
 All quantities printed in internal units (Hartrees-Bohrs-Radians)
 Second derivative matrix not updated -- first step.
 ITU=  0
     Eigenvalues ---    0.00055   0.00058   0.00198   0.00246   0.00246
     Eigenvalues ---    0.00387   0.00445   0.00613   0.00659   0.00670
     Eigenvalues ---    0.00672   0.00825   0.00844   0.01326   0.01573
     Eigenvalues ---    0.01814   0.02020   0.02046   0.02540   0.02545
     Eigenvalues ---    0.03062   0.03141   0.04096   0.04198   0.04436
     Eigenvalues ---    0.04504   0.04685   0.05377   0.05526   0.06207
     Eigenvalues ---    0.06256   0.06907   0.06936   0.07040   0.07061
     Eigenvalues ---    0.07064   0.07287   0.07680   0.07748   0.09598
     Eigenvalues ---    0.10004   0.10224   0.10388   0.11573   0.11914
     Eigenvalues ---    0.11981   0.12250   0.12303   0.12818   0.13374
     Eigenvalues ---    0.13378   0.13457   0.13669   0.14774   0.15447
     Eigenvalues ---    0.15688   0.15885   0.19500   0.20123   0.20202
     Eigenvalues ---    0.21111   0.22048   0.24127   0.25020   0.28674
     Eigenvalues ---    0.29592   0.30037   0.30496   0.30840   0.31664
     Eigenvalues ---    0.32045   0.34795   0.36198   0.36655   0.37771
     Eigenvalues ---    0.37932   0.41250   0.41905   0.44759   0.47450
     Eigenvalues ---    0.48482   0.48672   0.49292   0.51119   0.52234
     Eigenvalues ---    0.53646   0.54453   0.55670   0.62988   0.66204
     Eigenvalues ---    0.68888   0.71360   0.72838   0.74142   0.86755
     Eigenvalues ---    0.90502   0.91200   0.91406   0.93467   0.94525
     Eigenvalues ---    0.95387   0.97067   1.00334   1.04322   1.12587
     Eigenvalues ---    1.15936   1.15954   1.18599   1.20897   1.24740
     Eigenvalues ---    1.31269   1.37966   1.38182   1.45799   1.47494
     Eigenvalues ---    1.49840   1.51223   1.53882   1.61006   1.64543
     Eigenvalues ---    1.66272   1.67263   1.77880   1.79172   1.85367
     Eigenvalues ---    1.88724
 Quadratic step=6.582D-01 exceeds max=3.000D-01 adjusted using Lamda=-3.982D-02.
 Angle between NR and scaled steps=  39.04 degrees.
 Angle between quadratic step and forces=  44.60 degrees.
 Linear search not attempted -- first point.
 B after Tr=    -0.000000   -0.000982   -0.000001
         Rot=    1.000000   -0.000000   -0.000000   -0.000000 Ang=  -0.00 deg.
 Variable       Old X    -DE/DX   Delta X   Delta X   Delta X     New X
                                 (Linear)    (Quad)   (Total)
    X1        0.00002  -0.00002   0.00000  -0.00002  -0.00002   0.00000
    Y1        1.48564  -0.08652   0.00000  -0.15681  -0.15779   1.32785
    Z1        0.00019  -0.00000   0.00000  -0.00002  -0.00002   0.00017
    X2       -2.41319   0.06939   0.00000   0.09218   0.09218  -2.32101
    Y2        2.56419   0.04234   0.00000  -0.01893  -0.01991   2.54428
    Z2        0.00006   0.00000   0.00000   0.00001   0.00001   0.00008
    X3       -2.35202  -0.00534   0.00000   0.02528   0.02528  -2.32674
    Y3        5.20285   0.00297   0.00000  -0.00015  -0.00114   5.20172
    Z3       -0.00002   0.00000   0.00000   0.00001   0.00001  -0.00000
    X4       -0.00000   0.00001   0.00000   0.00000   0.00000   0.00000
    Y4        6.43000   0.00214   0.00000   0.02385   0.02287   6.45287
    Z4        0.00001  -0.00000   0.00000  -0.00000   0.00000   0.00001
    X5        2.35203   0.00533   0.00000  -0.02528  -0.02528   2.32675
    Y5        5.20284   0.00299   0.00000  -0.00014  -0.00112   5.20172
    Z5        0.00007   0.00000   0.00000   0.00001   0.00001   0.00008
    X6        2.41317  -0.06935   0.00000  -0.09217  -0.09217   2.32100
    Y6        2.56421   0.04231   0.00000  -0.01894  -0.01992   2.54429
    Z6        0.00014   0.00000   0.00000   0.00001   0.00001   0.00015
    X7       -4.07583  -0.00083   0.00000   0.01908   0.01908  -4.05676
    Y7        6.30246   0.00555   0.00000   0.01142   0.01044   6.31290
    Z7       -0.00008  -0.00000   0.00000   0.00000   0.00000  -0.00008
    X8        0.00000  -0.00000   0.00000   0.00000  -0.00000   0.00000
    Y8        8.48394  -0.00016   0.00000   0.02106   0.02008   8.50402
    Z8       -0.00002  -0.00000   0.00000  -0.00001  -0.00001  -0.00003
    X9        4.07584   0.00083   0.00000  -0.01908  -0.01908   4.05676
    Y9        6.30246   0.00555   0.00000   0.01143   0.01045   6.31290
    Z9        0.00009  -0.00000   0.00000  -0.00000  -0.00000   0.00009
   X10        6.97241  -0.01056   0.00000  -0.03486  -0.03486   6.93754
   Y10        1.09883  -0.00554   0.00000  -0.01373  -0.01471   1.08412
   Z10       -0.00006   0.00000   0.00000   0.00001   0.00001  -0.00005
   X11        3.62493   0.00013   0.00000  -0.04303  -0.04303   3.58191
   Y11       -1.71488   0.00506   0.00000   0.00449   0.00351  -1.71137
   Z11        0.00025  -0.00002   0.00000  -0.00005  -0.00006   0.00020
   X12        7.91034   0.01152   0.00000  -0.01485  -0.01485   7.89549
   Y12       -1.40381   0.00588   0.00000   0.00850   0.00752  -1.39629
   Z12       -0.00019  -0.00000   0.00000   0.00001   0.00001  -0.00018
   X13        8.59308   0.01179   0.00000  -0.02003  -0.02003   8.57305
   Y13        3.14590   0.00319   0.00000  -0.00302  -0.00401   3.14189
   Z13       -0.00011  -0.00000   0.00000  -0.00000  -0.00000  -0.00011
   X14       10.48565   0.00333   0.00000  -0.01130  -0.01130  10.47435
   Y14       -1.88895   0.00552   0.00000   0.00450   0.00352  -1.88542
   Z14       -0.00038  -0.00000   0.00000   0.00000   0.00000  -0.00037
   X15       11.20421  -0.01214   0.00000  -0.03240  -0.03240  11.17180
   Y15        2.65219   0.00703   0.00000  -0.00049  -0.00147   2.65072
   Z15       -0.00032   0.00000   0.00000   0.00000   0.00000  -0.00032
   X16        7.89442   0.00021   0.00000  -0.01040  -0.01040   7.88402
   Y16        5.06931   0.00014   0.00000   0.00026  -0.00072   5.06859
   Z16        0.00001  -0.00000   0.00000  -0.00001  -0.00001   0.00001
   X17       12.12296  -0.00019   0.00000  -0.01549  -0.01549  12.10747
   Y17        0.19743  -0.01210   0.00000  -0.00946  -0.01045   0.18698
   Z17       -0.00046  -0.00000   0.00000   0.00000   0.00000  -0.00046
   X18       11.19890   0.00077   0.00000  -0.00337  -0.00337  11.19553
   Y18       -3.81255   0.00035   0.00000   0.00677   0.00579  -3.80676
   Z18       -0.00046   0.00000   0.00000   0.00000   0.00000  -0.00045
   X19       12.50821   0.00037   0.00000  -0.02447  -0.02447  12.48374
   Y19        4.23565  -0.00013   0.00000  -0.00377  -0.00475   4.23090
   Z19       -0.00037  -0.00000   0.00000  -0.00000  -0.00000  -0.00037
   X20       14.14763   0.00047   0.00000  -0.01184  -0.01184  14.13580
   Y20       -0.13058   0.00004   0.00000  -0.00282  -0.00380  -0.13439
   Z20       -0.00062   0.00000   0.00000   0.00000   0.00000  -0.00061
   X21       -6.97236   0.01051   0.00000   0.03484   0.03484  -6.93752
   Y21        1.09877  -0.00547   0.00000  -0.01368  -0.01466   1.08411
   Z21       -0.00008  -0.00000   0.00000   0.00001   0.00001  -0.00007
   X22       -3.62493  -0.00012   0.00000   0.04303   0.04303  -3.58190
   Y22       -1.71489   0.00506   0.00000   0.00448   0.00350  -1.71139
   Z22        0.00019  -0.00002   0.00000  -0.00005  -0.00006   0.00013
   X23       -7.91038  -0.01145   0.00000   0.01489   0.01489  -7.89549
   Y23       -1.40381   0.00587   0.00000   0.00851   0.00753  -1.39628
   Z23       -0.00014  -0.00000   0.00000   0.00001   0.00001  -0.00013
   X24       -8.59311  -0.01175   0.00000   0.02006   0.02006  -8.57305
   Y24        3.14594   0.00313   0.00000  -0.00306  -0.00405   3.14189
   Z24       -0.00011  -0.00000   0.00000  -0.00000  -0.00000  -0.00011
   X25      -10.48560  -0.00339   0.00000   0.01127   0.01127 -10.47433
   Y25       -1.88896   0.00552   0.00000   0.00450   0.00352  -1.88543
   Z25       -0.00019  -0.00000   0.00000  -0.00000  -0.00000  -0.00019
   X26      -11.20419   0.01212   0.00000   0.03240   0.03240 -11.17179
   Y26        2.65216   0.00705   0.00000  -0.00048  -0.00146   2.65070
   Z26       -0.00019   0.00000   0.00000  -0.00000  -0.00000  -0.00019
   X27       -7.89442  -0.00020   0.00000   0.01042   0.01042  -7.88400
   Y27        5.06929   0.00016   0.00000   0.00028  -0.00071   5.06858
   Z27       -0.00005  -0.00000   0.00000  -0.00000  -0.00000  -0.00005
   X28      -12.12297   0.00021   0.00000   0.01549   0.01549 -12.10748
   Y28        0.19743  -0.01212   0.00000  -0.00948  -0.01046   0.18697
   Z28       -0.00023   0.00000   0.00000   0.00000  -0.00000  -0.00024
   X29      -11.19889  -0.00076   0.00000   0.00336   0.00336 -11.19553
   Y29       -3.81257   0.00035   0.00000   0.00678   0.00580  -3.80677
   Z29       -0.00019  -0.00000   0.00000  -0.00000  -0.00001  -0.00020
   X30      -12.50822  -0.00036   0.00000   0.02448   0.02448 -12.48374
   Y30        4.23564  -0.00013   0.00000  -0.00378  -0.00476   4.23088
   Z30       -0.00021  -0.00000   0.00000  -0.00000  -0.00000  -0.00021
   X31      -14.14762  -0.00047   0.00000   0.01183   0.01183 -14.13579
   Y31       -0.13061   0.00004   0.00000  -0.00283  -0.00381  -0.13442
   Z31       -0.00029   0.00000   0.00000   0.00000   0.00000  -0.00029
   X32       -4.35445  -0.02361   0.00000   0.03245   0.03245  -4.32200
   Y32        0.89044  -0.06216   0.00000  -0.06113  -0.06211   0.82833
   Z32        0.00003   0.00001   0.00000   0.00002   0.00002   0.00005
   X33       -5.88885   0.02605   0.00000   0.05598   0.05598  -5.83287
   Y33       -3.03070   0.02258   0.00000   0.03174   0.03075  -2.99995
   Z33       -0.00009   0.00001   0.00000   0.00002   0.00002  -0.00007
   X34        4.35447   0.02359   0.00000  -0.03247  -0.03247   4.32200
   Y34        0.89042  -0.06213   0.00000  -0.06112  -0.06210   0.82832
   Z34        0.00015   0.00001   0.00000   0.00000   0.00000   0.00015
   X35        5.88888  -0.02608   0.00000  -0.05599  -0.05599   5.83290
   Y35       -3.03070   0.02259   0.00000   0.03174   0.03076  -2.99994
   Z35       -0.00007   0.00001   0.00000   0.00002   0.00001  -0.00006
   X36        6.04620  -0.00026   0.00000  -0.02337  -0.02337   6.02284
   Y36       -5.72315  -0.01081   0.00000   0.01244   0.01146  -5.71169
   Z36        0.00001  -0.00000   0.00000   0.00001   0.00000   0.00002
   X37        7.02541   0.00074   0.00000  -0.00574  -0.00574   7.01967
   Y37       -6.42324   0.00141   0.00000   0.02799   0.02701  -6.39623
   Z37       -1.68809   0.00075   0.00000   0.00422   0.00421  -1.68388
   X38        7.02454   0.00074   0.00000  -0.00573  -0.00573   7.01880
   Y38       -6.42327   0.00141   0.00000   0.02799   0.02701  -6.39626
   Z38        1.68862  -0.00075   0.00000  -0.00421  -0.00421   1.68441
   X39        4.13121   0.00075   0.00000  -0.01523  -0.01523   4.11598
   Y39       -6.50175   0.00237   0.00000   0.00814   0.00716  -6.49459
   Z39       -0.00052   0.00000   0.00000   0.00002   0.00001  -0.00050
   X40       -6.04619   0.00027   0.00000   0.02338   0.02338  -6.02282
   Y40       -5.72317  -0.01080   0.00000   0.01244   0.01146  -5.71170
   Z40        0.00008  -0.00000   0.00000   0.00001   0.00000   0.00009
   X41       -7.02440  -0.00074   0.00000   0.00573   0.00573  -7.01867
   Y41       -6.42324   0.00141   0.00000   0.02800   0.02702  -6.39623
   Z41        1.68878  -0.00075   0.00000  -0.00420  -0.00421   1.68457
   X42       -7.02551  -0.00075   0.00000   0.00574   0.00574  -7.01978
   Y42       -6.42329   0.00141   0.00000   0.02800   0.02702  -6.39627
   Z42       -1.68793   0.00075   0.00000   0.00421   0.00421  -1.68372
   X43       -4.13120  -0.00075   0.00000   0.01523   0.01523  -4.11597
   Y43       -6.50175   0.00237   0.00000   0.00813   0.00715  -6.49460
   Z43       -0.00057   0.00000   0.00000   0.00002   0.00001  -0.00056
   X44        0.00001  -0.00000   0.00000  -0.00000  -0.00000   0.00001
   Y44       -2.33992   0.05427   0.00000   0.09356   0.09258  -2.24734
   Z44        0.00018   0.00001   0.00000  -0.00003  -0.00003   0.00015
         Item               Value     Threshold  Converged?
 Maximum Force            0.086517     0.000450     NO 
 RMS     Force            0.016740     0.000300     NO 
 Maximum Displacement     0.157788     0.001800     NO 
 RMS     Displacement     0.026163     0.001200     NO 
 Predicted change in Energy=-2.238651D-02
 GradGradGradGradGradGradGradGradGradGradGradGradGradGradGradGradGradGrad

 Unable to Open any file for archive entry.
 1\1\GINC-X11P1N5\Force\UPBE1PBE\GenECP\C22H17Co1N4\MAYUMIAO\17-Jul-202
 4\0\\# pbe1pbe em=gd3bj genecp g09default scf=(xqc,maxcycle=64) force 
 guess=read nosymm\\Title Card\\0,1\C,0.00000949,0.78616561,0.00010178\
 C,-1.27700492,1.35691352,0.00003395\C,-1.24463317,2.75323174,-0.000009
 9\C,-0.00000144,3.40260804,0.00000717\C,1.24464119,2.75322533,0.000037
 5\C,1.27699255,1.3569236,0.00007286\H,-2.15683791,3.33511757,-0.000043
 99\H,0.0000014,4.48950745,-0.00000914\H,2.15684263,3.33511718,0.000045
 4\C,3.68963807,0.58147464,-0.00002931\C,1.91823234,-0.90747445,0.00013
 411\C,4.18597025,-0.74286164,-0.00009806\C,4.54726348,1.66473887,-0.00
 005975\C,5.54876927,-0.99958667,-0.00019882\C,5.92901,1.40347919,-0.00
 017141\H,4.17754757,2.68256588,0.00000696\C,6.41519512,0.10447567,-0.0
 002428\H,5.92620251,-2.01751588,-0.00024118\H,6.61906144,2.24141037,-0
 .00019649\H,7.48660543,-0.06910239,-0.00032732\C,-3.68961331,0.5814437
 9,-0.00004165\C,-1.91823152,-0.90747979,0.00010061\C,-4.18599114,-0.74
 286639,-0.0000716\C,-4.54727857,1.66475874,-0.00005573\C,-5.54873961,-
 0.99959314,-0.0001013\C,-5.92900277,1.40346373,-0.0001008\H,-4.1775492
 1,2.68255332,-0.00002398\C,-6.41519917,0.10447413,-0.00012426\H,-5.926
 1972,-2.0175267,-0.00010239\H,-6.61906461,2.24140374,-0.00010903\H,-7.
 48659884,-0.06911399,-0.00015306\N,-2.30427721,0.47119933,0.00001614\N
 ,-3.11624369,-1.6037774,-0.00004949\N,2.3042855,0.47118805,0.00007952\
 N,3.11626276,-1.60377673,-0.00003839\C,3.19951337,-3.0285613,0.0000075
 7\H,3.7176867,-3.39903304,-0.89329768\H,3.71722525,-3.39904637,0.89358
 159\H,2.18614424,-3.44057554,-0.00027289\C,-3.19950848,-3.02856921,0.0
 0004412\H,-3.71715171,-3.39903293,0.89366372\H,-3.71774119,-3.39906059
 ,-0.89321372\H,-2.18613471,-3.44057795,-0.00030269\Co,0.0000055,-1.238
 23011,0.00009377\\Version=ES64L-G16RevC.01\HF=-1212.1209592\S2=0.\S2-1
 =0.\S2A=0.\RMSD=4.520e-09\RMSF=1.674e-02\Dipole=-0.0000683,-1.4482851,
 -0.0001099\Quadrupole=13.4924451,7.228801,-20.7212461,0.000386,-0.0003
 905,0.0003435\PG=C01 [X(C22H17Co1N4)]\\@
 The archive entry for this job was punched.


 The hours that make us happy make us wise.
                         -- John Masefield
 Job cpu time:       0 days  0 hours 25 minutes  6.6 seconds.
 Elapsed time:       0 days  0 hours  0 minutes 27.5 seconds.
 File lengths (MBytes):  RWF=    184 Int=      0 D2E=      0 Chk=    162 Scr=      1
 Normal termination of Gaussian 16 at Wed Jul 17 21:19:28 2024.
