 Entering Gaussian System, Link 0=g16
 Input=JOBS/31_A.gjf
 Output=JOBS/31_A.log
 Initial command:
 /data/app/gaussian/C01-avx2//g16/l1.exe "/tmp/Gau-2090457.inp" -scrdir="/tmp/"
 Entering Link 1 = /data/app/gaussian/C01-avx2//g16/l1.exe PID=   2090458.
  
 Copyright (c) 1988-2019, Gaussian, Inc.  All Rights Reserved.
  
 This is part of the Gaussian(R) 16 program.  It is based on
 the Gaussian(R) 09 system (copyright 2009, Gaussian, Inc.),
 the Gaussian(R) 03 system (copyright 2003, Gaussian, Inc.),
 the Gaussian(R) 98 system (copyright 1998, Gaussian, Inc.),
 the Gaussian(R) 94 system (copyright 1995, Gaussian, Inc.),
 the Gaussian 92(TM) system (copyright 1992, Gaussian, Inc.),
 the Gaussian 90(TM) system (copyright 1990, Gaussian, Inc.),
 the Gaussian 88(TM) system (copyright 1988, Gaussian, Inc.),
 the Gaussian 86(TM) system (copyright 1986, Carnegie Mellon
 University), and the Gaussian 82(TM) system (copyright 1983,
 Carnegie Mellon University). Gaussian is a federally registered
 trademark of Gaussian, Inc.
  
 This software contains proprietary and confidential information,
 including trade secrets, belonging to Gaussian, Inc.
  
 This software is provided under written license and may be
 used, copied, transmitted, or stored only in accord with that
 written license.
  
 The following legend is applicable only to US Government
 contracts under FAR:
  
                    RESTRICTED RIGHTS LEGEND
  
 Use, reproduction and disclosure by the US Government is
 subject to restrictions as set forth in subparagraphs (a)
 and (c) of the Commercial Computer Software - Restricted
 Rights clause in FAR 52.227-19.
  
 Gaussian, Inc.
 340 Quinnipiac St., Bldg. 40, Wallingford CT 06492
  
  
 ---------------------------------------------------------------
 Warning -- This program may not be used in any manner that
 competes with the business of Gaussian, Inc. or will provide
 assistance to any competitor of Gaussian, Inc.  The licensee
 of this program is prohibited from giving any competitor of
 Gaussian, Inc. access to this program.  By using this program,
 the user acknowledges that Gaussian, Inc. is engaged in the
 business of creating and licensing software in the field of
 computational chemistry and represents and warrants to the
 licensee that it is not a competitor of Gaussian, Inc. and that
 it will not use this program in any manner prohibited above.
 ---------------------------------------------------------------
  

 Cite this work as:
 Gaussian 16, Revision C.01,
 M. J. Frisch, G. W. Trucks, H. B. Schlegel, G. E. Scuseria, 
 M. A. Robb, J. R. Cheeseman, G. Scalmani, V. Barone, 
 G. A. Petersson, H. Nakatsuji, X. Li, M. Caricato, A. V. Marenich, 
 J. Bloino, B. G. Janesko, R. Gomperts, B. Mennucci, H. P. Hratchian, 
 J. V. Ortiz, A. F. Izmaylov, J. L. Sonnenberg, D. Williams-Young, 
 F. Ding, F. Lipparini, F. Egidi, J. Goings, B. Peng, A. Petrone, 
 T. Henderson, D. Ranasinghe, V. G. Zakrzewski, J. Gao, N. Rega, 
 G. Zheng, W. Liang, M. Hada, M. Ehara, K. Toyota, R. Fukuda, 
 J. Hasegawa, M. Ishida, T. Nakajima, Y. Honda, O. Kitao, H. Nakai, 
 T. Vreven, K. Throssell, J. A. Montgomery, Jr., J. E. Peralta, 
 F. Ogliaro, M. J. Bearpark, J. J. Heyd, E. N. Brothers, K. N. Kudin, 
 V. N. Staroverov, T. A. Keith, R. Kobayashi, J. Normand, 
 K. Raghavachari, A. P. Rendell, J. C. Burant, S. S. Iyengar, 
 J. Tomasi, M. Cossi, J. M. Millam, M. Klene, C. Adamo, R. Cammi, 
 J. W. Ochterski, R. L. Martin, K. Morokuma, O. Farkas, 
 J. B. Foresman, and D. J. Fox, Gaussian, Inc., Wallingford CT, 2019.
 
 ******************************************
 Gaussian 16:  ES64L-G16RevC.01  3-Jul-2019
                17-Jul-2024 
 ******************************************
 %chk=a.chk
 %nprocshared=56
 Will use up to   56 processors via shared memory.
 %mem=96gb
 ----------------------------------------------------------------------
 # pbe1pbe em=gd3bj genecp g09default scf=(xqc,maxcycle=64) force guess
 =read nosymm
 ----------------------------------------------------------------------
 1/10=7,30=1,38=1,158=3,167=1/1,3;
 2/12=2,15=1,17=6,18=5,40=1/2;
 3/5=7,11=2,16=1,17=8,25=1,27=10,30=1,71=1,74=-13,75=-4,116=-2,124=41,158=3/1,2,3;
 4/5=1,60=-1/1;
 5/5=2,7=64,8=3,13=1,38=6,87=10/2,8;
 6/7=2,8=2,9=2,10=2,28=1,87=10/1;
 7/29=1,30=1,87=10/1,2,3,16;
 1/10=7,30=1,158=3,167=1/3;
 99//99;
 Using 2006 physical constants.
 ----------
 Title Card
 ----------
 Symbolic Z-matrix:
 Charge =  0 Multiplicity = 1
 6                     0.        0.78963   0.00009 
 6                    -1.27878   1.35814   0.00004 
 6                    -1.24571   2.75577  -0.00001 
 6                     0.        3.40522   0. 
 6                     1.24571   2.75577   0.00003 
 6                     1.27878   1.35814   0.00007 
 1                    -2.15853   3.33951  -0.00004 
 1                     0.        4.49371  -0.00001 
 1                     2.15854   3.33951   0.00004 
 6                     3.69203   0.5827   -0.00003 
 6                     1.91989  -0.91049   0.00014 
 6                     4.18911  -0.74333  -0.0001 
 6                     4.54992   1.66316  -0.00006 
 6                     5.55356  -0.99823  -0.0002 
 6                     5.9338    1.40437  -0.00017 
 1                     4.18137   2.68279   0.00001 
 6                     6.42029   0.10405  -0.00024 
 1                     5.93171  -2.01734  -0.00024 
 1                     6.62365   2.24181  -0.0002 
 1                     7.49292  -0.06839  -0.00033 
 6                    -3.69202   0.5827   -0.00004 
 6                    -1.91989  -0.91049   0.00011 
 6                    -4.18911  -0.74334  -0.00007 
 6                    -4.54991   1.66316  -0.00006 
 6                    -5.55355  -0.99823  -0.0001 
 6                    -5.93379   1.40436  -0.0001 
 1                    -4.18137   2.68278  -0.00002 
 6                    -6.42029   0.10404  -0.00012 
 1                    -5.9317   -2.01735  -0.0001 
 1                    -6.62365   2.2418   -0.00011 
 1                    -7.49292  -0.0684   -0.00015 
 7                    -2.30562   0.47062   0.00002 
 7                    -3.1204   -1.60425  -0.00005 
 7                     2.30563   0.47062   0.00008 
 7                     3.12041  -1.60424  -0.00004 
 6                     3.20327  -3.02934   0.00001 
 1                     3.72074  -3.40202  -0.89299 
 1                     3.72027  -3.40203   0.89328 
 1                     2.18907  -3.43868  -0.00028 
 6                    -3.20326  -3.02934   0.00004 
 1                    -3.72019  -3.40202   0.89336 
 1                    -3.72079  -3.40205  -0.89291 
 1                    -2.18906  -3.43869  -0.00031 
 27                    0.       -1.25205   0.00011 
 

 GradGradGradGradGradGradGradGradGradGradGradGradGradGradGradGradGradGrad
 Berny optimization.
 Initialization pass.
 Trust Radius=3.00D-01 FncErr=1.00D-07 GrdErr=1.00D-07 EigMax=2.50D+02 EigMin=1.00D-04
 Number of steps in this run=      2 maximum allowed number of steps=      2.
 GradGradGradGradGradGradGradGradGradGradGradGradGradGradGradGradGradGrad

                          Input orientation:                          
 ---------------------------------------------------------------------
 Center     Atomic      Atomic             Coordinates (Angstroms)
 Number     Number       Type             X           Y           Z
 ---------------------------------------------------------------------
      1          6           0        0.000004    0.789630    0.000092
      2          6           0       -1.278782    1.358136    0.000036
      3          6           0       -1.245710    2.755770   -0.000012
      4          6           0        0.000001    3.405222    0.000005
      5          6           0        1.245714    2.755770    0.000035
      6          6           0        1.278782    1.358138    0.000074
      7          1           0       -2.158530    3.339508   -0.000043
      8          1           0        0.000002    4.493708   -0.000008
      9          1           0        2.158537    3.339506    0.000045
     10          6           0        3.692027    0.582701   -0.000031
     11          6           0        1.919893   -0.910485    0.000138
     12          6           0        4.189110   -0.743331   -0.000098
     13          6           0        4.549915    1.663164   -0.000061
     14          6           0        5.553559   -0.998228   -0.000199
     15          6           0        5.933795    1.404367   -0.000172
     16          1           0        4.181372    2.682789    0.000006
     17          6           0        6.420290    0.104055   -0.000243
     18          1           0        5.931710   -2.017338   -0.000240
     19          1           0        6.623651    2.241810   -0.000197
     20          1           0        7.492920   -0.068393   -0.000328
     21          6           0       -3.692023    0.582698   -0.000043
     22          6           0       -1.919889   -0.910487    0.000105
     23          6           0       -4.189112   -0.743338   -0.000073
     24          6           0       -4.549914    1.663156   -0.000057
     25          6           0       -5.553546   -0.998231   -0.000101
     26          6           0       -5.933793    1.404360   -0.000101
     27          1           0       -4.181373    2.682783   -0.000024
     28          6           0       -6.420286    0.104043   -0.000124
     29          1           0       -5.931703   -2.017347   -0.000101
     30          1           0       -6.623652    2.241800   -0.000109
     31          1           0       -7.492915   -0.068404   -0.000154
     32          7           0       -2.305624    0.470624    0.000016
     33          7           0       -3.120397   -1.604245   -0.000049
     34          7           0        2.305631    0.470625    0.000078
     35          7           0        3.120407   -1.604241   -0.000035
     36          6           0        3.203269   -3.029337    0.000009
     37          1           0        3.720736   -3.402018   -0.892993
     38          1           0        3.720267   -3.402033    0.893280
     39          1           0        2.189066   -3.438683   -0.000277
     40          6           0       -3.203262   -3.029343    0.000045
     41          1           0       -3.720194   -3.402019    0.893363
     42          1           0       -3.720793   -3.402048   -0.892909
     43          1           0       -2.189057   -3.438686   -0.000308
     44         27           0        0.000003   -1.252049    0.000105
 ---------------------------------------------------------------------
                    Distance matrix (angstroms):
                    1          2          3          4          5
     1  C    0.000000
     2  C    1.399462   0.000000
     3  C    2.327555   1.398026   0.000000
     4  C    2.615592   2.413680   1.404844   0.000000
     5  C    2.327553   2.885562   2.491425   1.404844   0.000000
     6  C    1.399455   2.557564   2.885557   2.413676   1.398024
     7  H    3.340830   2.167900   1.083508   2.159532   3.453930
     8  H    3.704078   3.386311   2.138277   1.088486   2.138277
     9  H    3.340828   3.967492   3.453932   2.159535   1.083509
    10  C    3.697818   5.030929   5.394764   4.647330   3.272106
    11  C    2.564443   3.921501   4.843808   4.723485   3.727727
    12  C    4.460782   5.857816   6.463821   5.895686   4.572449
    13  C    4.633007   5.836674   5.897717   4.872010   3.480163
    14  C    5.834244   7.227263   7.766760   7.087480   5.714020
    15  C    5.965550   7.212726   7.305586   6.262055   4.878975
    16  H    4.589978   5.618540   5.427573   4.243321   2.936565
    17  C    6.456786   7.800541   8.111668   7.219266   5.814450
    18  H    6.562333   7.961471   8.619624   8.036748   6.688880
    19  H    6.780968   7.951687   7.886127   6.725047   5.402440
    20  H    7.541883   8.886942   9.183657   8.258924   6.855908
    21  C    3.697822   2.534765   3.272108   4.647331   5.394766
    22  C    2.564447   2.357471   3.727729   4.723487   4.843809
    23  C    4.460793   3.589736   4.572458   5.895695   6.463829
    24  C    4.633012   3.285322   3.480168   4.872014   5.897721
    25  C    5.834241   4.881195   5.714016   7.087474   7.766754
    26  C    5.965554   4.655240   4.878978   6.262057   7.305589
    27  H    4.589982   3.190567   2.936570   4.243325   5.427578
    28  C    6.456791   5.292241   5.814455   7.219271   8.111672
    29  H    6.562337   5.748352   6.688884   8.036751   8.619627
    30  H    6.780975   5.417425   5.402446   6.725053   7.886133
    31  H    7.541887   6.375772   6.855912   8.258927   9.183660
    32  N    2.327592   1.357232   2.518990   3.731993   4.223020
    33  N    3.932879   3.488157   4.745965   5.901834   6.170305
    34  N    2.327591   3.692654   4.223022   3.731995   2.518991
    35  N    3.932878   5.303635   6.170306   5.901834   4.745964
    36  C    4.984518   6.272057   7.298006   7.187800   6.107331
    37  H    5.675506   6.960729   7.961241   7.808958   6.696387
    38  H    5.675226   6.960430   7.960995   7.808780   6.696256
    39  H    4.761367   5.919074   7.083003   7.185474   6.265873
    40  C    4.984522   4.790990   6.107335   7.187803   7.298008
    41  H    5.675185   5.423799   6.696234   7.808743   7.960945
    42  H    5.675556   5.424031   6.696419   7.809003   7.961298
    43  H    4.761370   4.882427   6.265875   7.185475   7.083004
    44  Co   2.041679   2.906606   4.196954   4.657271   4.196953
                    6          7          8          9         10
     6  C    0.000000
     7  H    3.967486   0.000000
     8  H    3.386308   2.447742   0.000000
     9  H    2.167900   4.317067   2.447745   0.000000
    10  C    2.534769   6.467535   5.378385   3.154610   0.000000
    11  C    2.357472   5.890330   5.735093   4.256686   2.317340
    12  C    3.589733   7.547325   6.706356   4.559911   1.416140
    13  C    3.285324   6.914721   5.358516   2.920413   1.379628
    14  C    4.881206   8.848292   7.810465   5.508368   2.442261
    15  C    4.655243   8.320487   6.689838   4.242328   2.387606
    16  H    3.190569   6.373825   4.556675   2.126768   2.156346
    17  C    5.292243   9.168659   7.777478   5.350765   2.769932
    18  H    5.748354   9.702978   8.807888   6.552299   3.431674
    19  H    5.417426   8.850517   6.995983   4.598063   3.368540
    20  H    6.375775  10.235442   8.772490   6.330041   3.856256
    21  C    5.030925   3.154616   5.378388   6.467538   7.384050
    22  C    3.921499   4.256690   5.735095   5.890331   5.807169
    23  C    5.857820   4.559922   6.706364   7.547334   7.991916
    24  C    5.836671   2.920423   5.358522   6.914728   8.312459
    25  C    7.227252   5.508367   7.810460   8.848287   9.379764
    26  C    7.212723   4.242335   6.689842   8.320492   9.660825
    27  H    5.618538   2.126777   4.556681   6.373832   8.148666
    28  C    7.800539   5.350775   7.777484   9.168665  10.123635
    29  H    7.961469   6.552306   8.807892   9.702981   9.968773
    30  H    7.951687   4.598073   6.995990   8.850525  10.448246
    31  H    8.886939   6.330049   8.772495  10.235447  11.203877
    32  N    3.692647   2.872652   4.636929   5.306526   5.998698
    33  N    5.303629   5.036455   6.849958   7.232414   7.154848
    34  N    1.357239   5.306527   4.636931   2.872650   1.390919
    35  N    3.488161   7.232415   6.849957   5.036450   2.260412
    36  C    4.790990   8.325327   8.176621   6.453962   3.644956
    37  H    5.424002   8.989511   8.774040   6.977545   4.083649
    38  H    5.423827   8.989253   8.773886   6.977480   4.083737
    39  H    4.882428   8.052668   8.228902   6.778257   4.293066
    40  C    6.272057   6.453969   8.176625   8.325330   7.784078
    41  H    6.960374   6.977474   8.773852   8.989196   8.462692
    42  H    6.960785   6.977567   8.774084   8.989574   8.463176
    43  H    5.919073   6.778262   8.228904   8.052668   7.124514
    44  Co   2.906604   5.073624   5.745758   5.073623   4.122784
                   11         12         13         14         15
    11  C    0.000000
    12  C    2.275365   0.000000
    13  C    3.679767   2.433392   0.000000
    14  C    3.634724   1.388053   2.844347   0.000000
    15  C    4.633568   2.767044   1.407871   2.432497   0.000000
    16  H    4.245693   3.426128   1.084186   3.928458   2.169182
    17  C    4.613335   2.386677   2.434979   1.402231   1.388340
    18  H    4.161706   2.158645   3.931342   1.087007   3.421705
    19  H    5.662358   3.852019   2.152954   3.412176   1.084994
    20  H    5.636288   3.372047   3.414610   2.150748   2.144735
    21  C    5.807168   7.991909   8.312458   9.379771   9.660824
    22  C    3.839782   6.111285   6.962905   7.473962   8.187729
    23  C    6.111291   8.378222   9.064317   9.746004  10.348231
    24  C    6.962904   9.064310   9.099829  10.448116  10.486903
    25  C    7.473955   9.745990  10.448108  11.107105  11.735906
    26  C    8.187729  10.348224  10.486902  11.735914  11.867588
    27  H    7.080750   9.044514   8.790621  10.407628  10.195635
    28  C    8.401659  10.643183  11.080441  12.024474  12.422326
    29  H    7.929231  10.200685  11.109027  11.530388  12.349015
    30  H    9.106540  11.217256  11.188540  12.600883  12.585340
    31  H    9.450400  11.701506  12.166680  13.079566  13.507243
    32  N    4.445499   6.607213   6.958489   7.995266   8.292159
    33  N    5.087812   7.360032   8.337245   8.695100   9.540972
    34  N    1.433966   2.240799   2.541449   3.564627   3.746392
    35  N    1.386553   1.372331   3.566431   2.507484   4.119086
    36  C    2.477213   2.489520   4.881908   3.106326   5.207063
    37  H    3.201321   2.843458   5.209697   3.151908   5.366199
    38  H    3.201072   2.843702   5.209856   3.152387   5.366511
    39  H    2.542486   3.356352   5.621606   4.156396   6.121938
    40  C    5.544031   7.737765   9.062636   8.989290  10.155963
    41  H    6.230263   8.391900   9.739045   9.621806  10.821241
    42  H    6.230791   8.392404   9.739516   9.622311  10.821722
    43  H    4.824445   6.924302   8.452374   8.118123   9.457055
    44  Co   1.950037   4.219883   5.403718   5.559352   6.501264
                   16         17         18         19         20
    16  H    0.000000
    17  C    3.415058   0.000000
    18  H    5.015464   2.176928   0.000000
    19  H    2.481771   2.147406   4.314988   0.000000
    20  H    4.305270   1.086404   2.497151   2.468332   0.000000
    21  C    8.148665  10.123635   9.968773  10.448243  11.203878
    22  C    7.080750   8.401659   7.929232   9.106539   9.450402
    23  C    9.044520  10.643189  10.200691  11.217261  11.701513
    24  C    8.790621  11.080441  11.109027  11.188539  12.166680
    25  C   10.407620  12.024466  11.530381  12.600873  13.079560
    26  C   10.195634  12.422325  12.349015  12.585337  13.507243
    27  H    8.362745  10.910779  11.151931  10.814018  11.994085
    28  C   10.910779  12.840576  12.532840  13.217955  13.914275
    29  H   11.151931  12.532840  11.863413  13.258104  13.565357
    30  H   10.814020  13.217957  13.258106  13.247303  14.304356
    31  H   11.994084  13.914274  13.565357  14.304354  14.985835
    32  N    6.853816   8.733610   8.604861   9.103244   9.813358
    33  N    8.467260   9.692419   9.061528  10.475620  10.723868
    34  N    2.900358   4.130956   4.397546   4.667161   5.215219
    35  N    4.416364   3.715845   2.841492   5.202386   4.634404
    36  C    5.795263   4.490809   2.910074   6.283630   5.212322
    37  H    6.167213   4.514105   2.757309   6.409118   5.112659
    38  H    6.167303   4.514550   2.757941   6.409439   5.113179
    39  H    6.437523   5.518537   4.003449   7.206493   6.284085
    40  C    9.336020  10.120817   9.190858  11.151380  11.098447
    41  H   10.012878  10.766638   9.791584  11.817207  11.732249
    42  H   10.013329  10.767134   9.792093  11.817681  11.732745
    43  H    8.834864   9.309773   8.244215  10.484839  10.251807
    44  Co   5.741672   6.561943   5.980870   7.488642   7.585831
                   21         22         23         24         25
    21  C    0.000000
    22  C    2.317340   0.000000
    23  C    1.416145   2.275370   0.000000
    24  C    1.379625   3.679765   2.433391   0.000000
    25  C    2.442254   3.634717   1.388039   2.844338   0.000000
    26  C    2.387606   4.633567   2.767042   1.407869   2.432495
    27  H    2.156344   4.245692   3.426129   1.084187   3.928450
    28  C    2.769933   4.613334   2.386671   2.434979   1.402229
    29  H    3.431675   4.161705   2.158639   3.931341   1.087014
    30  H    3.368541   5.662359   3.852017   2.152956   3.412173
    31  H    3.856256   5.636287   3.372040   3.414609   2.150751
    32  N    1.390922   1.433967   2.240810   2.541450   3.564623
    33  N    2.260415   1.386549   1.372338   3.566431   2.507483
    34  N    5.998701   4.445502   6.607222   6.958493   7.995261
    35  N    7.154852   5.087816   7.360042   8.337248   8.695097
    36  C    7.784077   5.544030   7.737770   9.062634   8.989283
    37  H    8.463116   6.230730   8.392352   9.739455   9.622254
    38  H    8.462751   6.230323   8.391961   9.739101   9.621851
    39  H    7.124515   4.824446   6.924307   8.452373   8.118118
    40  C    3.644959   2.477215   2.489521   4.881907   3.106324
    41  H    4.083740   3.201052   2.843712   5.209859   3.152405
    42  H    4.083655   3.201344   2.843452   5.209695   3.151893
    43  H    4.293068   2.542487   3.356355   5.621604   4.156394
    44  Co   4.122785   1.950039   4.219890   5.403718   5.559347
                   26         27         28         29         30
    26  C    0.000000
    27  H    2.169180   0.000000
    28  C    1.388344   3.415059   0.000000
    29  H    3.421707   5.015463   2.176926   0.000000
    30  H    1.084994   2.481773   2.147408   4.314988   0.000000
    31  H    2.144737   4.305269   1.086403   2.497150   2.468332
    32  N    3.746394   2.900358   4.130960   4.397550   4.667165
    33  N    4.119090   4.416364   3.715847   2.841495   5.202390
    34  N    8.292163   6.853821   8.733614   8.604863   9.103250
    35  N    9.540976   8.467264   9.692423   9.061532  10.475625
    36  C   10.155963   9.336019  10.120815   9.190857  11.151380
    37  H   10.821667  10.013267  10.767081   9.792046  11.817627
    38  H   10.821295  10.012936  10.766688   9.791630  11.817261
    39  H    9.457055   8.834864   9.309772   8.244215  10.484841
    40  C    5.207064   5.795263   4.490808   2.910073   6.283631
    41  H    5.366524   6.167304   4.514565   2.757965   6.409451
    42  H    5.366194   6.167215   4.514090   2.757287   6.409111
    43  H    6.121940   6.437523   5.518535   4.003449   7.206494
    44  Co   6.501265   5.741673   6.561944   5.980871   7.488645
                   31         32         33         34         35
    31  H    0.000000
    32  N    5.215222   0.000000
    33  N    4.634406   2.229111   0.000000
    34  N    9.813361   4.611255   5.809205   0.000000
    35  N   10.723871   5.809206   6.240804   2.229109   0.000000
    36  C   11.098445   6.526687   6.482256   3.613238   1.427503
    37  H   11.732695   7.218854   7.129547   4.218704   2.095178
    38  H   11.732296   7.218502   7.129149   4.218588   2.095210
    39  H   10.251806   5.956922   5.617433   3.911045   2.057322
    40  C    5.212320   3.613243   1.427505   6.526689   6.482261
    41  H    5.113197   4.218583   2.095216   7.218441   7.129094
    42  H    5.112641   4.218721   2.095178   7.218920   7.129611
    43  H    6.284084   3.911048   2.057321   5.956923   5.617437
    44  Co   7.585832   2.878111   3.140213   2.878111   3.140216
                   36         37         38         39         40
    36  C    0.000000
    37  H    1.097322   0.000000
    38  H    1.097326   1.786273   0.000000
    39  H    1.093697   1.773218   1.773236   0.000000
    40  C    6.406531   6.991292   6.990853   5.407842   0.000000
    41  H    6.990802   7.652353   7.440461   5.976561   1.097326
    42  H    6.991341   7.441529   7.652440   5.977003   1.097321
    43  H    5.407841   5.976947   5.976617   4.378123   1.093697
    44  Co   3.663286   4.389060   4.388685   3.094085   3.663288
                   41         42         43         44
    41  H    0.000000
    42  H    1.786272   0.000000
    43  H    1.773238   1.773216   0.000000
    44  Co   4.388638   4.389111   3.094086   0.000000
 Symmetry turned off by external request.
 Stoichiometry    C22H17CoN4
 Framework group  C1[X(C22H17CoN4)]
 Deg. of freedom   126
 Full point group                 C1      NOp   1
 Rotational constants (GHZ):           0.4625657           0.1003075           0.0825187
 General basis read from cards:  (5D, 7F)
 ======================================================================================================
                                       Pseudopotential Parameters
 ======================================================================================================
  Center     Atomic      Valence      Angular      Power
  Number     Number     Electrons     Momentum     of R      Exponent        Coefficient   SO-Coeffient
 ======================================================================================================
    1          6
                                   No pseudopotential on this center.
    2          6
                                   No pseudopotential on this center.
    3          6
                                   No pseudopotential on this center.
    4          6
                                   No pseudopotential on this center.
    5          6
                                   No pseudopotential on this center.
    6          6
                                   No pseudopotential on this center.
    7          1
                                   No pseudopotential on this center.
    8          1
                                   No pseudopotential on this center.
    9          1
                                   No pseudopotential on this center.
   10          6
                                   No pseudopotential on this center.
   11          6
                                   No pseudopotential on this center.
   12          6
                                   No pseudopotential on this center.
   13          6
                                   No pseudopotential on this center.
   14          6
                                   No pseudopotential on this center.
   15          6
                                   No pseudopotential on this center.
   16          1
                                   No pseudopotential on this center.
   17          6
                                   No pseudopotential on this center.
   18          1
                                   No pseudopotential on this center.
   19          1
                                   No pseudopotential on this center.
   20          1
                                   No pseudopotential on this center.
   21          6
                                   No pseudopotential on this center.
   22          6
                                   No pseudopotential on this center.
   23          6
                                   No pseudopotential on this center.
   24          6
                                   No pseudopotential on this center.
   25          6
                                   No pseudopotential on this center.
   26          6
                                   No pseudopotential on this center.
   27          1
                                   No pseudopotential on this center.
   28          6
                                   No pseudopotential on this center.
   29          1
                                   No pseudopotential on this center.
   30          1
                                   No pseudopotential on this center.
   31          1
                                   No pseudopotential on this center.
   32          7
                                   No pseudopotential on this center.
   33          7
                                   No pseudopotential on this center.
   34          7
                                   No pseudopotential on this center.
   35          7
                                   No pseudopotential on this center.
   36          6
                                   No pseudopotential on this center.
   37          1
                                   No pseudopotential on this center.
   38          1
                                   No pseudopotential on this center.
   39          1
                                   No pseudopotential on this center.
   40          6
                                   No pseudopotential on this center.
   41          1
                                   No pseudopotential on this center.
   42          1
                                   No pseudopotential on this center.
   43          1
                                   No pseudopotential on this center.
   44         27           17
                                      F and up 
                                                     2        1.0000000        0.00000000    0.00000000
                                      S - F
                                                     2       23.6600000      283.96056600    0.00000000
                                                     2       10.6100000       47.15684600    0.00000000
                                      P - F
                                                     2       25.0400000      182.21223600    0.00000000
                                                     2       10.4400000       35.23335200    0.00000000
                                      D - F
                                                     2       29.5400000      -26.47533300    0.00000000
                                                     2       10.1800000       -1.82578700    0.00000000
 ======================================================================================================
   441 basis functions,   871 primitive gaussians,   473 cartesian basis functions
    97 alpha electrons       97 beta electrons
       nuclear repulsion energy      2484.0556827731 Hartrees.
 NAtoms=   44 NActive=   44 NUniq=   44 SFac= 1.00D+00 NAtFMM=   60 NAOKFM=F Big=F
 Integral buffers will be    131072 words long.
 Raffenetti 2 integral format.
 Two-electron integral symmetry is turned off.
 Nuclear repulsion after empirical dispersion term =     2483.9965939468 Hartrees.
 One-electron integrals computed using PRISM.
   1 Symmetry operations used in ECPInt.
 ECPInt:  NShTT=   11781 NPrTT=   71406 LenC2=    9520 LenP2D=   32018.
 LDataN:  DoStor=T MaxTD1= 6 Len=  172
 NBasis=   441 RedAO= T EigKep=  3.25D-04  NBF=   441
 NBsUse=   441 1.00D-06 EigRej= -1.00D+00 NBFU=   441
 Initial guess from the checkpoint file:  "a.chk"
 B after Tr=    -0.000001   -0.003071    0.000002
         Rot=    1.000000    0.000001    0.000000   -0.000000 Ang=   0.00 deg.
 Initial guess <Sx>= 0.0000 <Sy>= 0.0000 <Sz>= 0.0000 <S**2>= 0.0000 S= 0.0000
 Requested convergence on RMS density matrix=1.00D-08 within  64 cycles.
 Requested convergence on MAX density matrix=1.00D-06.
 Requested convergence on             energy=1.00D-06.
 No special actions if energy rises.
 SCF Done:  E(UPBE1PBE) =  -1212.11857447     A.U. after   16 cycles
            NFock= 16  Conv=0.47D-08     -V/T= 2.0553
 <Sx>= 0.0000 <Sy>= 0.0000 <Sz>= 0.0000 <S**2>= 0.0000 S= 0.0000
 <L.S>=  0.00000000000    
 Annihilation of the first spin contaminant:
 S**2 before annihilation     0.0000,   after     0.0000
 QCSCF skips out because SCF is already converged.

 **********************************************************************

            Population analysis using the SCF Density.

 **********************************************************************

 Alpha  occ. eigenvalues --  -14.45814 -14.45813 -14.45229 -14.45229 -10.28354
 Alpha  occ. eigenvalues --  -10.28353 -10.27666 -10.27666 -10.27470 -10.27470
 Alpha  occ. eigenvalues --  -10.27295 -10.27294 -10.25257 -10.25257 -10.24173
 Alpha  occ. eigenvalues --  -10.24173 -10.23939 -10.23939 -10.23493 -10.23493
 Alpha  occ. eigenvalues --  -10.23439 -10.23439 -10.21521 -10.21517 -10.21214
 Alpha  occ. eigenvalues --  -10.19126  -3.83146  -2.34896  -2.34843  -2.31055
 Alpha  occ. eigenvalues --   -1.05904  -1.05839  -0.97081  -0.96750  -0.88191
 Alpha  occ. eigenvalues --   -0.87941  -0.84923  -0.80303  -0.78771  -0.77927
 Alpha  occ. eigenvalues --   -0.77835  -0.75569  -0.75030  -0.72932  -0.71836
 Alpha  occ. eigenvalues --   -0.66549  -0.65197  -0.64557  -0.64063  -0.62624
 Alpha  occ. eigenvalues --   -0.61404  -0.58892  -0.57230  -0.56615  -0.54125
 Alpha  occ. eigenvalues --   -0.53219  -0.51968  -0.49703  -0.49645  -0.49044
 Alpha  occ. eigenvalues --   -0.48194  -0.47897  -0.47487  -0.46643  -0.46132
 Alpha  occ. eigenvalues --   -0.45768  -0.45315  -0.45004  -0.44582  -0.44049
 Alpha  occ. eigenvalues --   -0.42383  -0.41923  -0.41098  -0.38527  -0.38411
 Alpha  occ. eigenvalues --   -0.38358  -0.37507  -0.36854  -0.36758  -0.36698
 Alpha  occ. eigenvalues --   -0.35141  -0.34622  -0.34437  -0.33880  -0.31601
 Alpha  occ. eigenvalues --   -0.29027  -0.26668  -0.25941  -0.24748  -0.24435
 Alpha  occ. eigenvalues --   -0.22077  -0.21285  -0.20518  -0.20203  -0.16422
 Alpha  occ. eigenvalues --   -0.15339  -0.14883
 Alpha virt. eigenvalues --   -0.04508  -0.02512  -0.00674  -0.00099   0.00889
 Alpha virt. eigenvalues --    0.01325   0.01981   0.03262   0.05325   0.05923
 Alpha virt. eigenvalues --    0.06226   0.07309   0.08924   0.09291   0.10086
 Alpha virt. eigenvalues --    0.10439   0.12588   0.13115   0.14153   0.14235
 Alpha virt. eigenvalues --    0.15292   0.15589   0.15889   0.16012   0.16517
 Alpha virt. eigenvalues --    0.16812   0.17019   0.17656   0.17883   0.18293
 Alpha virt. eigenvalues --    0.19200   0.19224   0.19726   0.20351   0.22088
 Alpha virt. eigenvalues --    0.22133   0.22577   0.22724   0.22921   0.23823
 Alpha virt. eigenvalues --    0.25897   0.25943   0.26455   0.27681   0.27776
 Alpha virt. eigenvalues --    0.28319   0.29317   0.29555   0.30634   0.31030
 Alpha virt. eigenvalues --    0.31682   0.33251   0.33704   0.34533   0.34594
 Alpha virt. eigenvalues --    0.36321   0.37777   0.38125   0.39547   0.39619
 Alpha virt. eigenvalues --    0.41512   0.43088   0.44592   0.45243   0.46321
 Alpha virt. eigenvalues --    0.47449   0.47754   0.50379   0.51278   0.51920
 Alpha virt. eigenvalues --    0.52191   0.53556   0.53766   0.56011   0.56064
 Alpha virt. eigenvalues --    0.56862   0.56866   0.56996   0.58142   0.58428
 Alpha virt. eigenvalues --    0.58602   0.59051   0.59276   0.60146   0.61471
 Alpha virt. eigenvalues --    0.61541   0.61914   0.63078   0.63101   0.63223
 Alpha virt. eigenvalues --    0.63352   0.63387   0.63396   0.63975   0.64411
 Alpha virt. eigenvalues --    0.65277   0.65869   0.66327   0.66836   0.67066
 Alpha virt. eigenvalues --    0.67632   0.68187   0.68432   0.68976   0.70910
 Alpha virt. eigenvalues --    0.72225   0.72477   0.74000   0.75867   0.76210
 Alpha virt. eigenvalues --    0.76468   0.77044   0.78315   0.79760   0.80128
 Alpha virt. eigenvalues --    0.81052   0.81990   0.82651   0.83304   0.83815
 Alpha virt. eigenvalues --    0.84122   0.84347   0.85046   0.86700   0.86785
 Alpha virt. eigenvalues --    0.86791   0.87253   0.87549   0.89776   0.90354
 Alpha virt. eigenvalues --    0.90514   0.91444   0.91691   0.92020   0.92834
 Alpha virt. eigenvalues --    0.93389   0.93695   0.95228   0.95513   0.95944
 Alpha virt. eigenvalues --    0.95953   0.97206   0.97909   0.97914   0.98277
 Alpha virt. eigenvalues --    0.98349   1.00072   1.00192   1.01665   1.02138
 Alpha virt. eigenvalues --    1.02835   1.03341   1.03926   1.06337   1.07394
 Alpha virt. eigenvalues --    1.09068   1.09658   1.11041   1.11172   1.13869
 Alpha virt. eigenvalues --    1.14960   1.15752   1.16102   1.16678   1.18409
 Alpha virt. eigenvalues --    1.18428   1.19077   1.20307   1.23696   1.24059
 Alpha virt. eigenvalues --    1.24535   1.25311   1.26991   1.27255   1.27816
 Alpha virt. eigenvalues --    1.29164   1.29482   1.30176   1.32745   1.33316
 Alpha virt. eigenvalues --    1.33788   1.36202   1.36363   1.37353   1.38998
 Alpha virt. eigenvalues --    1.40299   1.41637   1.42726   1.42783   1.42872
 Alpha virt. eigenvalues --    1.45010   1.45171   1.45407   1.46333   1.47728
 Alpha virt. eigenvalues --    1.47936   1.49251   1.49914   1.49923   1.51077
 Alpha virt. eigenvalues --    1.51205   1.51307   1.53278   1.54832   1.57127
 Alpha virt. eigenvalues --    1.57354   1.59396   1.62022   1.65414   1.65703
 Alpha virt. eigenvalues --    1.65769   1.70376   1.72456   1.72788   1.76517
 Alpha virt. eigenvalues --    1.77370   1.78558   1.79819   1.80027   1.82036
 Alpha virt. eigenvalues --    1.82715   1.85674   1.86927   1.86989   1.87455
 Alpha virt. eigenvalues --    1.88414   1.88465   1.90010   1.91081   1.91884
 Alpha virt. eigenvalues --    1.93226   1.95038   1.95104   1.96423   1.96966
 Alpha virt. eigenvalues --    1.97936   1.98545   1.98557   1.98727   1.99062
 Alpha virt. eigenvalues --    1.99589   2.00251   2.01528   2.02362   2.03480
 Alpha virt. eigenvalues --    2.06225   2.06531   2.07313   2.09961   2.10215
 Alpha virt. eigenvalues --    2.12353   2.12974   2.14194   2.15108   2.15227
 Alpha virt. eigenvalues --    2.16119   2.16609   2.16701   2.19011   2.19744
 Alpha virt. eigenvalues --    2.20492   2.21386   2.21460   2.22361   2.23621
 Alpha virt. eigenvalues --    2.24740   2.24818   2.26113   2.27128   2.27619
 Alpha virt. eigenvalues --    2.27844   2.27989   2.28150   2.28416   2.28764
 Alpha virt. eigenvalues --    2.32881   2.34703   2.38790   2.39757   2.40516
 Alpha virt. eigenvalues --    2.40596   2.43855   2.44462   2.46219   2.46702
 Alpha virt. eigenvalues --    2.51546   2.51609   2.52065   2.57117   2.58526
 Alpha virt. eigenvalues --    2.58951   2.59705   2.60057   2.60415   2.62464
 Alpha virt. eigenvalues --    2.63892   2.65031   2.66551   2.67875   2.69495
 Alpha virt. eigenvalues --    2.69513   2.70131   2.72141   2.74156   2.74848
 Alpha virt. eigenvalues --    2.75423   2.75455   2.77455   2.78852   2.79391
 Alpha virt. eigenvalues --    2.80048   2.83315   2.85405   2.88182   2.88420
 Alpha virt. eigenvalues --    2.93349   2.94005   2.97649   2.98249   3.00074
 Alpha virt. eigenvalues --    3.00298   3.06141   3.06970   3.15195   3.18954
 Alpha virt. eigenvalues --    3.19477   3.29223   3.40016   3.46409   3.47003
 Alpha virt. eigenvalues --    3.52201   3.52527   3.61111   5.66715   5.67082
 Alpha virt. eigenvalues --    5.67509   5.68357   5.68805   5.69758   5.71848
 Alpha virt. eigenvalues --   45.82113  45.96889  46.02150  63.11696
  Beta  occ. eigenvalues --  -14.45814 -14.45813 -14.45229 -14.45229 -10.28354
  Beta  occ. eigenvalues --  -10.28353 -10.27666 -10.27666 -10.27470 -10.27470
  Beta  occ. eigenvalues --  -10.27295 -10.27294 -10.25257 -10.25257 -10.24173
  Beta  occ. eigenvalues --  -10.24173 -10.23939 -10.23939 -10.23493 -10.23493
  Beta  occ. eigenvalues --  -10.23439 -10.23439 -10.21521 -10.21517 -10.21214
  Beta  occ. eigenvalues --  -10.19126  -3.83146  -2.34896  -2.34843  -2.31056
  Beta  occ. eigenvalues --   -1.05904  -1.05839  -0.97081  -0.96750  -0.88191
  Beta  occ. eigenvalues --   -0.87941  -0.84923  -0.80303  -0.78771  -0.77927
  Beta  occ. eigenvalues --   -0.77835  -0.75569  -0.75030  -0.72932  -0.71836
  Beta  occ. eigenvalues --   -0.66549  -0.65197  -0.64557  -0.64063  -0.62624
  Beta  occ. eigenvalues --   -0.61404  -0.58892  -0.57230  -0.56615  -0.54125
  Beta  occ. eigenvalues --   -0.53219  -0.51968  -0.49703  -0.49645  -0.49044
  Beta  occ. eigenvalues --   -0.48194  -0.47897  -0.47487  -0.46643  -0.46132
  Beta  occ. eigenvalues --   -0.45768  -0.45315  -0.45004  -0.44582  -0.44049
  Beta  occ. eigenvalues --   -0.42383  -0.41923  -0.41098  -0.38527  -0.38411
  Beta  occ. eigenvalues --   -0.38358  -0.37507  -0.36854  -0.36758  -0.36698
  Beta  occ. eigenvalues --   -0.35141  -0.34622  -0.34437  -0.33880  -0.31601
  Beta  occ. eigenvalues --   -0.29027  -0.26668  -0.25941  -0.24748  -0.24435
  Beta  occ. eigenvalues --   -0.22077  -0.21285  -0.20518  -0.20203  -0.16422
  Beta  occ. eigenvalues --   -0.15340  -0.14883
  Beta virt. eigenvalues --   -0.04508  -0.02512  -0.00674  -0.00099   0.00889
  Beta virt. eigenvalues --    0.01325   0.01981   0.03262   0.05325   0.05923
  Beta virt. eigenvalues --    0.06226   0.07309   0.08924   0.09291   0.10086
  Beta virt. eigenvalues --    0.10439   0.12588   0.13115   0.14153   0.14235
  Beta virt. eigenvalues --    0.15292   0.15589   0.15889   0.16012   0.16517
  Beta virt. eigenvalues --    0.16812   0.17019   0.17656   0.17883   0.18293
  Beta virt. eigenvalues --    0.19200   0.19224   0.19726   0.20351   0.22088
  Beta virt. eigenvalues --    0.22133   0.22577   0.22724   0.22921   0.23823
  Beta virt. eigenvalues --    0.25897   0.25943   0.26455   0.27681   0.27776
  Beta virt. eigenvalues --    0.28319   0.29317   0.29555   0.30634   0.31030
  Beta virt. eigenvalues --    0.31682   0.33251   0.33704   0.34533   0.34594
  Beta virt. eigenvalues --    0.36321   0.37777   0.38125   0.39547   0.39619
  Beta virt. eigenvalues --    0.41512   0.43088   0.44592   0.45243   0.46321
  Beta virt. eigenvalues --    0.47449   0.47754   0.50379   0.51278   0.51920
  Beta virt. eigenvalues --    0.52191   0.53556   0.53766   0.56011   0.56064
  Beta virt. eigenvalues --    0.56862   0.56866   0.56996   0.58142   0.58428
  Beta virt. eigenvalues --    0.58602   0.59051   0.59276   0.60146   0.61471
  Beta virt. eigenvalues --    0.61541   0.61914   0.63078   0.63101   0.63223
  Beta virt. eigenvalues --    0.63352   0.63387   0.63396   0.63975   0.64411
  Beta virt. eigenvalues --    0.65277   0.65869   0.66327   0.66836   0.67066
  Beta virt. eigenvalues --    0.67632   0.68187   0.68432   0.68976   0.70910
  Beta virt. eigenvalues --    0.72225   0.72477   0.74000   0.75867   0.76210
  Beta virt. eigenvalues --    0.76468   0.77044   0.78315   0.79760   0.80128
  Beta virt. eigenvalues --    0.81052   0.81990   0.82651   0.83304   0.83815
  Beta virt. eigenvalues --    0.84122   0.84347   0.85046   0.86700   0.86785
  Beta virt. eigenvalues --    0.86791   0.87253   0.87549   0.89776   0.90354
  Beta virt. eigenvalues --    0.90514   0.91444   0.91691   0.92020   0.92834
  Beta virt. eigenvalues --    0.93389   0.93695   0.95228   0.95513   0.95944
  Beta virt. eigenvalues --    0.95953   0.97206   0.97909   0.97914   0.98277
  Beta virt. eigenvalues --    0.98349   1.00072   1.00192   1.01665   1.02138
  Beta virt. eigenvalues --    1.02835   1.03341   1.03926   1.06337   1.07394
  Beta virt. eigenvalues --    1.09068   1.09658   1.11041   1.11172   1.13869
  Beta virt. eigenvalues --    1.14960   1.15752   1.16102   1.16678   1.18409
  Beta virt. eigenvalues --    1.18428   1.19077   1.20307   1.23696   1.24059
  Beta virt. eigenvalues --    1.24535   1.25311   1.26991   1.27255   1.27816
  Beta virt. eigenvalues --    1.29164   1.29482   1.30176   1.32745   1.33316
  Beta virt. eigenvalues --    1.33788   1.36202   1.36363   1.37353   1.38998
  Beta virt. eigenvalues --    1.40299   1.41637   1.42726   1.42783   1.42872
  Beta virt. eigenvalues --    1.45010   1.45171   1.45407   1.46333   1.47728
  Beta virt. eigenvalues --    1.47936   1.49251   1.49914   1.49923   1.51077
  Beta virt. eigenvalues --    1.51205   1.51307   1.53278   1.54832   1.57127
  Beta virt. eigenvalues --    1.57354   1.59396   1.62022   1.65414   1.65703
  Beta virt. eigenvalues --    1.65769   1.70376   1.72456   1.72788   1.76517
  Beta virt. eigenvalues --    1.77370   1.78558   1.79819   1.80027   1.82036
  Beta virt. eigenvalues --    1.82715   1.85674   1.86927   1.86989   1.87455
  Beta virt. eigenvalues --    1.88414   1.88465   1.90010   1.91081   1.91884
  Beta virt. eigenvalues --    1.93226   1.95038   1.95104   1.96423   1.96966
  Beta virt. eigenvalues --    1.97936   1.98545   1.98557   1.98727   1.99062
  Beta virt. eigenvalues --    1.99589   2.00251   2.01528   2.02362   2.03480
  Beta virt. eigenvalues --    2.06225   2.06531   2.07313   2.09961   2.10215
  Beta virt. eigenvalues --    2.12353   2.12974   2.14194   2.15108   2.15227
  Beta virt. eigenvalues --    2.16119   2.16609   2.16701   2.19011   2.19744
  Beta virt. eigenvalues --    2.20492   2.21386   2.21460   2.22361   2.23621
  Beta virt. eigenvalues --    2.24740   2.24818   2.26113   2.27128   2.27619
  Beta virt. eigenvalues --    2.27844   2.27989   2.28150   2.28416   2.28764
  Beta virt. eigenvalues --    2.32881   2.34703   2.38790   2.39757   2.40516
  Beta virt. eigenvalues --    2.40596   2.43855   2.44462   2.46219   2.46702
  Beta virt. eigenvalues --    2.51546   2.51609   2.52065   2.57117   2.58526
  Beta virt. eigenvalues --    2.58951   2.59705   2.60057   2.60415   2.62464
  Beta virt. eigenvalues --    2.63892   2.65031   2.66551   2.67875   2.69495
  Beta virt. eigenvalues --    2.69513   2.70131   2.72141   2.74156   2.74848
  Beta virt. eigenvalues --    2.75423   2.75455   2.77455   2.78852   2.79391
  Beta virt. eigenvalues --    2.80048   2.83315   2.85405   2.88182   2.88420
  Beta virt. eigenvalues --    2.93349   2.94005   2.97649   2.98249   3.00074
  Beta virt. eigenvalues --    3.00298   3.06141   3.06970   3.15195   3.18954
  Beta virt. eigenvalues --    3.19477   3.29223   3.40016   3.46409   3.47003
  Beta virt. eigenvalues --    3.52201   3.52527   3.61111   5.66715   5.67082
  Beta virt. eigenvalues --    5.67508   5.68357   5.68805   5.69758   5.71848
  Beta virt. eigenvalues --   45.82113  45.96889  46.02150  63.11696
          Condensed to atoms (all electrons):
               1          2          3          4          5          6
     1  C    5.098800   0.523212  -0.061933  -0.057205  -0.061933   0.523216
     2  C    0.523212   4.626328   0.521919  -0.016846  -0.040056  -0.018606
     3  C   -0.061933   0.521919   5.048133   0.535570  -0.033029  -0.040057
     4  C   -0.057205  -0.016846   0.535570   4.908924   0.535570  -0.016846
     5  C   -0.061933  -0.040056  -0.033029   0.535570   5.048135   0.521919
     6  C    0.523216  -0.018606  -0.040057  -0.016846   0.521919   4.626324
     7  H    0.006081  -0.039738   0.340808  -0.040154   0.003971   0.000868
     8  H    0.001484   0.002559  -0.035796   0.365249  -0.035796   0.002559
     9  H    0.006081   0.000868   0.003971  -0.040154   0.340808  -0.039738
    10  C    0.005921  -0.000039   0.000004   0.000121  -0.004836  -0.045484
    11  C    0.004026   0.001973  -0.000039   0.000025   0.003048  -0.062211
    12  C   -0.000648   0.000002  -0.000000   0.000001   0.000106   0.007030
    13  C    0.000135   0.000000  -0.000001   0.000045   0.002018  -0.003365
    14  C    0.000002  -0.000000   0.000000  -0.000000   0.000002  -0.000024
    15  C    0.000002  -0.000000   0.000000  -0.000001   0.000077   0.000058
    16  H   -0.000025   0.000001   0.000001   0.000086   0.000153   0.000780
    17  C    0.000000   0.000000   0.000000   0.000000  -0.000001  -0.000004
    18  H   -0.000000   0.000000   0.000000   0.000000  -0.000000   0.000002
    19  H   -0.000000   0.000000  -0.000000   0.000000   0.000001  -0.000002
    20  H    0.000000  -0.000000   0.000000  -0.000000  -0.000000  -0.000000
    21  C    0.005921  -0.045484  -0.004836   0.000121   0.000004  -0.000039
    22  C    0.004026  -0.062211   0.003048   0.000025  -0.000039   0.001973
    23  C   -0.000648   0.007030   0.000106   0.000001  -0.000000   0.000002
    24  C    0.000135  -0.003365   0.002019   0.000045  -0.000001   0.000000
    25  C    0.000002  -0.000024   0.000002  -0.000000   0.000000  -0.000000
    26  C    0.000002   0.000058   0.000077  -0.000001   0.000000  -0.000000
    27  H   -0.000025   0.000780   0.000153   0.000086   0.000001   0.000001
    28  C    0.000000  -0.000004  -0.000001   0.000000   0.000000   0.000000
    29  H   -0.000000   0.000002  -0.000000   0.000000   0.000000   0.000000
    30  H   -0.000000  -0.000002   0.000001   0.000000  -0.000000   0.000000
    31  H    0.000000  -0.000000  -0.000000  -0.000000   0.000000  -0.000000
    32  N   -0.040075   0.245828  -0.076002   0.004545   0.000107   0.006252
    33  N    0.001736   0.006232  -0.000144   0.000002   0.000000  -0.000037
    34  N   -0.040076   0.006252   0.000107   0.004545  -0.076002   0.245827
    35  N    0.001736  -0.000037   0.000000   0.000002  -0.000144   0.006232
    36  C   -0.000010   0.000000   0.000000  -0.000000   0.000002  -0.000032
    37  H   -0.000001  -0.000000   0.000000   0.000000  -0.000000   0.000004
    38  H   -0.000001  -0.000000   0.000000   0.000000  -0.000000   0.000004
    39  H   -0.000014   0.000001   0.000000  -0.000000   0.000000  -0.000008
    40  C   -0.000010  -0.000032   0.000002  -0.000000   0.000000   0.000000
    41  H   -0.000001   0.000004  -0.000000   0.000000   0.000000  -0.000000
    42  H   -0.000001   0.000004  -0.000000   0.000000   0.000000  -0.000000
    43  H   -0.000014  -0.000008   0.000000  -0.000000   0.000000   0.000001
    44  Co   0.256216  -0.058032   0.006657   0.002043   0.006657  -0.058031
               7          8          9         10         11         12
     1  C    0.006081   0.001484   0.006081   0.005921   0.004026  -0.000648
     2  C   -0.039738   0.002559   0.000868  -0.000039   0.001973   0.000002
     3  C    0.340808  -0.035796   0.003971   0.000004  -0.000039  -0.000000
     4  C   -0.040154   0.365249  -0.040154   0.000121   0.000025   0.000001
     5  C    0.003971  -0.035796   0.340808  -0.004836   0.003048   0.000106
     6  C    0.000868   0.002559  -0.039738  -0.045484  -0.062211   0.007030
     7  H    0.572766  -0.004107  -0.000092  -0.000000  -0.000001   0.000000
     8  H   -0.004107   0.551085  -0.004107  -0.000002   0.000001  -0.000000
     9  H   -0.000092  -0.004107   0.572765   0.000389  -0.000176  -0.000041
    10  C   -0.000000  -0.000002   0.000389   4.640889  -0.067023   0.515053
    11  C   -0.000001   0.000001  -0.000176  -0.067023   4.794715  -0.053856
    12  C    0.000000  -0.000000  -0.000041   0.515053  -0.053856   4.662929
    13  C   -0.000000   0.000002  -0.000340   0.536546   0.004350  -0.055933
    14  C   -0.000000   0.000000  -0.000000  -0.048873   0.004770   0.532798
    15  C   -0.000000   0.000000   0.000117  -0.006331  -0.000053  -0.037850
    16  H    0.000000  -0.000010   0.006427  -0.033090  -0.000151   0.003726
    17  C    0.000000  -0.000000   0.000002  -0.038953  -0.000055  -0.008819
    18  H    0.000000  -0.000000  -0.000000   0.003904  -0.000204  -0.037775
    19  H    0.000000   0.000000  -0.000008   0.001911   0.000003   0.000923
    20  H   -0.000000  -0.000000   0.000000   0.000885   0.000002   0.002288
    21  C    0.000389  -0.000002  -0.000000  -0.000000  -0.000007   0.000000
    22  C   -0.000176   0.000001  -0.000001  -0.000007  -0.012542  -0.000002
    23  C   -0.000041  -0.000000   0.000000   0.000000  -0.000002  -0.000000
    24  C   -0.000340   0.000002  -0.000000   0.000000   0.000000   0.000000
    25  C   -0.000000   0.000000  -0.000000  -0.000000   0.000000   0.000000
    26  C    0.000117   0.000000  -0.000000  -0.000000  -0.000000   0.000000
    27  H    0.006427  -0.000010   0.000000   0.000000   0.000000  -0.000000
    28  C    0.000002  -0.000000   0.000000   0.000000  -0.000000  -0.000000
    29  H   -0.000000  -0.000000   0.000000   0.000000   0.000000  -0.000000
    30  H   -0.000008   0.000000   0.000000   0.000000   0.000000   0.000000
    31  H    0.000000  -0.000000  -0.000000   0.000000   0.000000   0.000000
    32  N   -0.003514  -0.000097   0.000008   0.000000   0.000266   0.000000
    33  N   -0.000000  -0.000000  -0.000000   0.000000   0.000027   0.000000
    34  N    0.000008  -0.000097  -0.003514   0.256741   0.351509  -0.041184
    35  N   -0.000000  -0.000000  -0.000000  -0.046351   0.303547   0.261393
    36  C   -0.000000   0.000000  -0.000000   0.005496  -0.045150  -0.048494
    37  H    0.000000  -0.000000   0.000000  -0.000131   0.000555  -0.001066
    38  H    0.000000  -0.000000   0.000000  -0.000131   0.000549  -0.001062
    39  H    0.000000   0.000000   0.000000   0.000013   0.000653   0.002664
    40  C   -0.000000   0.000000  -0.000000   0.000000   0.000013   0.000000
    41  H    0.000000  -0.000000   0.000000  -0.000000  -0.000000  -0.000000
    42  H    0.000000  -0.000000   0.000000  -0.000000  -0.000000  -0.000000
    43  H    0.000000   0.000000   0.000000   0.000000  -0.000002  -0.000000
    44  Co  -0.000592   0.000139  -0.000592   0.007096   0.362244   0.005884
              13         14         15         16         17         18
     1  C    0.000135   0.000002   0.000002  -0.000025   0.000000  -0.000000
     2  C    0.000000  -0.000000  -0.000000   0.000001   0.000000   0.000000
     3  C   -0.000001   0.000000   0.000000   0.000001   0.000000   0.000000
     4  C    0.000045  -0.000000  -0.000001   0.000086   0.000000   0.000000
     5  C    0.002018   0.000002   0.000077   0.000153  -0.000001  -0.000000
     6  C   -0.003365  -0.000024   0.000058   0.000780  -0.000004   0.000002
     7  H   -0.000000  -0.000000  -0.000000   0.000000   0.000000   0.000000
     8  H    0.000002   0.000000   0.000000  -0.000010  -0.000000  -0.000000
     9  H   -0.000340  -0.000000   0.000117   0.006427   0.000002  -0.000000
    10  C    0.536546  -0.048873  -0.006331  -0.033090  -0.038953   0.003904
    11  C    0.004350   0.004770  -0.000053  -0.000151  -0.000055  -0.000204
    12  C   -0.055933   0.532798  -0.037850   0.003726  -0.008819  -0.037775
    13  C    5.022417  -0.045006   0.510968   0.355485  -0.036043   0.000274
    14  C   -0.045006   5.027957  -0.037181   0.000438   0.518300   0.362105
    15  C    0.510968  -0.037181   4.897726  -0.035681   0.554239   0.003847
    16  H    0.355485   0.000438  -0.035681   0.510431   0.003649   0.000013
    17  C   -0.036043   0.518300   0.554239   0.003649   4.889527  -0.035268
    18  H    0.000274   0.362105   0.003847   0.000013  -0.035268   0.532874
    19  H   -0.035327   0.003944   0.369049  -0.003908  -0.035962  -0.000145
    20  H    0.003976  -0.036563  -0.036286  -0.000146   0.368427  -0.004178
    21  C    0.000000  -0.000000  -0.000000   0.000000   0.000000   0.000000
    22  C    0.000000   0.000000  -0.000000   0.000000  -0.000000   0.000000
    23  C    0.000000   0.000000   0.000000  -0.000000  -0.000000  -0.000000
    24  C    0.000000  -0.000000   0.000000   0.000000   0.000000   0.000000
    25  C   -0.000000  -0.000000   0.000000  -0.000000  -0.000000   0.000000
    26  C    0.000000   0.000000  -0.000000  -0.000000  -0.000000   0.000000
    27  H    0.000000  -0.000000  -0.000000   0.000000   0.000000  -0.000000
    28  C    0.000000  -0.000000  -0.000000   0.000000   0.000000   0.000000
    29  H    0.000000   0.000000   0.000000  -0.000000   0.000000  -0.000000
    30  H   -0.000000  -0.000000   0.000000  -0.000000   0.000000   0.000000
    31  H   -0.000000   0.000000   0.000000  -0.000000   0.000000   0.000000
    32  N   -0.000000   0.000000   0.000000   0.000000   0.000000  -0.000000
    33  N    0.000000  -0.000000   0.000000   0.000000   0.000000  -0.000000
    34  N   -0.076514   0.009355   0.005075  -0.004985  -0.000205  -0.000093
    35  N    0.009659  -0.081961  -0.000186  -0.000097   0.005344  -0.007245
    36  C   -0.000120  -0.002669   0.000009   0.000003  -0.000109   0.004222
    37  H   -0.000009   0.002515  -0.000001  -0.000000  -0.000004   0.000512
    38  H   -0.000009   0.002513  -0.000001  -0.000000  -0.000004   0.000511
    39  H    0.000005   0.000011  -0.000000  -0.000000   0.000001  -0.000032
    40  C    0.000000   0.000000  -0.000000   0.000000   0.000000  -0.000000
    41  H   -0.000000  -0.000000   0.000000  -0.000000   0.000000  -0.000000
    42  H   -0.000000  -0.000000   0.000000  -0.000000   0.000000  -0.000000
    43  H    0.000000   0.000000  -0.000000   0.000000  -0.000000   0.000000
    44  Co  -0.001275  -0.001363   0.000168   0.000048   0.000150   0.000027
              19         20         21         22         23         24
     1  C   -0.000000   0.000000   0.005921   0.004026  -0.000648   0.000135
     2  C    0.000000  -0.000000  -0.045484  -0.062211   0.007030  -0.003365
     3  C   -0.000000   0.000000  -0.004836   0.003048   0.000106   0.002019
     4  C    0.000000  -0.000000   0.000121   0.000025   0.000001   0.000045
     5  C    0.000001  -0.000000   0.000004  -0.000039  -0.000000  -0.000001
     6  C   -0.000002  -0.000000  -0.000039   0.001973   0.000002   0.000000
     7  H    0.000000  -0.000000   0.000389  -0.000176  -0.000041  -0.000340
     8  H    0.000000  -0.000000  -0.000002   0.000001  -0.000000   0.000002
     9  H   -0.000008   0.000000  -0.000000  -0.000001   0.000000  -0.000000
    10  C    0.001911   0.000885  -0.000000  -0.000007   0.000000   0.000000
    11  C    0.000003   0.000002  -0.000007  -0.012542  -0.000002   0.000000
    12  C    0.000923   0.002288   0.000000  -0.000002  -0.000000   0.000000
    13  C   -0.035327   0.003976   0.000000   0.000000   0.000000   0.000000
    14  C    0.003944  -0.036563  -0.000000   0.000000   0.000000  -0.000000
    15  C    0.369049  -0.036286  -0.000000  -0.000000   0.000000   0.000000
    16  H   -0.003908  -0.000146   0.000000   0.000000  -0.000000   0.000000
    17  C   -0.035962   0.368427   0.000000  -0.000000  -0.000000   0.000000
    18  H   -0.000145  -0.004178   0.000000   0.000000  -0.000000   0.000000
    19  H    0.529959  -0.004510   0.000000   0.000000   0.000000  -0.000000
    20  H   -0.004510   0.534828   0.000000   0.000000   0.000000  -0.000000
    21  C    0.000000   0.000000   4.640892  -0.067023   0.515052   0.536547
    22  C    0.000000   0.000000  -0.067023   4.794713  -0.053855   0.004350
    23  C    0.000000   0.000000   0.515052  -0.053855   4.662920  -0.055933
    24  C   -0.000000  -0.000000   0.536547   0.004350  -0.055933   5.022419
    25  C   -0.000000   0.000000  -0.048873   0.004770   0.532801  -0.045008
    26  C    0.000000   0.000000  -0.006331  -0.000053  -0.037851   0.510967
    27  H   -0.000000  -0.000000  -0.033090  -0.000151   0.003726   0.355485
    28  C    0.000000   0.000000  -0.038953  -0.000055  -0.008818  -0.036043
    29  H    0.000000   0.000000   0.003904  -0.000204  -0.037775   0.000274
    30  H    0.000000   0.000000   0.001910   0.000003   0.000923  -0.035327
    31  H    0.000000   0.000000   0.000885   0.000002   0.002287   0.003976
    32  N    0.000000   0.000000   0.256741   0.351508  -0.041183  -0.076514
    33  N   -0.000000  -0.000000  -0.046350   0.303548   0.261392   0.009659
    34  N   -0.000089   0.000004   0.000000   0.000266   0.000000  -0.000000
    35  N    0.000004  -0.000098   0.000000   0.000027   0.000000   0.000000
    36  C   -0.000000  -0.000002   0.000000   0.000013   0.000000   0.000000
    37  H   -0.000000  -0.000000  -0.000000  -0.000000  -0.000000  -0.000000
    38  H   -0.000000  -0.000000  -0.000000  -0.000000  -0.000000  -0.000000
    39  H   -0.000000  -0.000000   0.000000  -0.000002  -0.000000   0.000000
    40  C    0.000000  -0.000000   0.005496  -0.045150  -0.048494  -0.000120
    41  H   -0.000000   0.000000  -0.000131   0.000549  -0.001062  -0.000009
    42  H   -0.000000   0.000000  -0.000131   0.000556  -0.001066  -0.000009
    43  H   -0.000000   0.000000   0.000013   0.000653   0.002664   0.000005
    44  Co   0.000012  -0.000011   0.007096   0.362244   0.005884  -0.001275
              25         26         27         28         29         30
     1  C    0.000002   0.000002  -0.000025   0.000000  -0.000000  -0.000000
     2  C   -0.000024   0.000058   0.000780  -0.000004   0.000002  -0.000002
     3  C    0.000002   0.000077   0.000153  -0.000001  -0.000000   0.000001
     4  C   -0.000000  -0.000001   0.000086   0.000000   0.000000   0.000000
     5  C    0.000000   0.000000   0.000001   0.000000   0.000000  -0.000000
     6  C   -0.000000  -0.000000   0.000001   0.000000   0.000000   0.000000
     7  H   -0.000000   0.000117   0.006427   0.000002  -0.000000  -0.000008
     8  H    0.000000   0.000000  -0.000010  -0.000000  -0.000000   0.000000
     9  H   -0.000000  -0.000000   0.000000   0.000000   0.000000   0.000000
    10  C   -0.000000  -0.000000   0.000000   0.000000   0.000000   0.000000
    11  C    0.000000  -0.000000   0.000000  -0.000000   0.000000   0.000000
    12  C    0.000000   0.000000  -0.000000  -0.000000  -0.000000   0.000000
    13  C   -0.000000   0.000000   0.000000   0.000000   0.000000  -0.000000
    14  C   -0.000000   0.000000  -0.000000  -0.000000   0.000000  -0.000000
    15  C    0.000000  -0.000000  -0.000000  -0.000000   0.000000   0.000000
    16  H   -0.000000  -0.000000   0.000000   0.000000  -0.000000  -0.000000
    17  C   -0.000000  -0.000000   0.000000   0.000000   0.000000   0.000000
    18  H    0.000000   0.000000  -0.000000   0.000000  -0.000000   0.000000
    19  H   -0.000000   0.000000  -0.000000   0.000000   0.000000   0.000000
    20  H    0.000000   0.000000  -0.000000   0.000000   0.000000   0.000000
    21  C   -0.048873  -0.006331  -0.033090  -0.038953   0.003904   0.001910
    22  C    0.004770  -0.000053  -0.000151  -0.000055  -0.000204   0.000003
    23  C    0.532801  -0.037851   0.003726  -0.008818  -0.037775   0.000923
    24  C   -0.045008   0.510967   0.355485  -0.036043   0.000274  -0.035327
    25  C    5.027964  -0.037181   0.000438   0.518297   0.362104   0.003944
    26  C   -0.037181   4.897727  -0.035681   0.554239   0.003847   0.369049
    27  H    0.000438  -0.035681   0.510432   0.003649   0.000013  -0.003908
    28  C    0.518297   0.554239   0.003649   4.889528  -0.035268  -0.035962
    29  H    0.362104   0.003847   0.000013  -0.035268   0.532875  -0.000145
    30  H    0.003944   0.369049  -0.003908  -0.035962  -0.000145   0.529958
    31  H   -0.036563  -0.036286  -0.000146   0.368427  -0.004178  -0.004510
    32  N    0.009356   0.005075  -0.004985  -0.000205  -0.000093  -0.000089
    33  N   -0.081963  -0.000186  -0.000097   0.005344  -0.007245   0.000004
    34  N    0.000000   0.000000   0.000000   0.000000  -0.000000   0.000000
    35  N   -0.000000   0.000000   0.000000   0.000000  -0.000000  -0.000000
    36  C    0.000000  -0.000000   0.000000   0.000000  -0.000000   0.000000
    37  H   -0.000000   0.000000  -0.000000   0.000000  -0.000000  -0.000000
    38  H   -0.000000   0.000000  -0.000000   0.000000  -0.000000  -0.000000
    39  H    0.000000  -0.000000   0.000000  -0.000000   0.000000  -0.000000
    40  C   -0.002669   0.000009   0.000003  -0.000109   0.004222  -0.000000
    41  H    0.002513  -0.000001  -0.000000  -0.000004   0.000511  -0.000000
    42  H    0.002515  -0.000001  -0.000000  -0.000004   0.000512  -0.000000
    43  H    0.000011  -0.000000  -0.000000   0.000001  -0.000032  -0.000000
    44  Co  -0.001363   0.000168   0.000048   0.000150   0.000027   0.000012
              31         32         33         34         35         36
     1  C    0.000000  -0.040075   0.001736  -0.040076   0.001736  -0.000010
     2  C   -0.000000   0.245828   0.006232   0.006252  -0.000037   0.000000
     3  C   -0.000000  -0.076002  -0.000144   0.000107   0.000000   0.000000
     4  C   -0.000000   0.004545   0.000002   0.004545   0.000002  -0.000000
     5  C    0.000000   0.000107   0.000000  -0.076002  -0.000144   0.000002
     6  C   -0.000000   0.006252  -0.000037   0.245827   0.006232  -0.000032
     7  H    0.000000  -0.003514  -0.000000   0.000008  -0.000000  -0.000000
     8  H   -0.000000  -0.000097  -0.000000  -0.000097  -0.000000   0.000000
     9  H   -0.000000   0.000008  -0.000000  -0.003514  -0.000000  -0.000000
    10  C    0.000000   0.000000   0.000000   0.256741  -0.046351   0.005496
    11  C    0.000000   0.000266   0.000027   0.351509   0.303547  -0.045150
    12  C    0.000000   0.000000   0.000000  -0.041184   0.261393  -0.048494
    13  C   -0.000000  -0.000000   0.000000  -0.076514   0.009659  -0.000120
    14  C    0.000000   0.000000  -0.000000   0.009355  -0.081961  -0.002669
    15  C    0.000000   0.000000   0.000000   0.005075  -0.000186   0.000009
    16  H   -0.000000   0.000000   0.000000  -0.004985  -0.000097   0.000003
    17  C    0.000000   0.000000   0.000000  -0.000205   0.005344  -0.000109
    18  H    0.000000  -0.000000  -0.000000  -0.000093  -0.007245   0.004222
    19  H    0.000000   0.000000  -0.000000  -0.000089   0.000004  -0.000000
    20  H    0.000000   0.000000  -0.000000   0.000004  -0.000098  -0.000002
    21  C    0.000885   0.256741  -0.046350   0.000000   0.000000   0.000000
    22  C    0.000002   0.351508   0.303548   0.000266   0.000027   0.000013
    23  C    0.002287  -0.041183   0.261392   0.000000   0.000000   0.000000
    24  C    0.003976  -0.076514   0.009659  -0.000000   0.000000   0.000000
    25  C   -0.036563   0.009356  -0.081963   0.000000  -0.000000   0.000000
    26  C   -0.036286   0.005075  -0.000186   0.000000   0.000000  -0.000000
    27  H   -0.000146  -0.004985  -0.000097   0.000000   0.000000   0.000000
    28  C    0.368427  -0.000205   0.005344   0.000000   0.000000   0.000000
    29  H   -0.004178  -0.000093  -0.007245  -0.000000  -0.000000  -0.000000
    30  H   -0.004510  -0.000089   0.000004   0.000000  -0.000000   0.000000
    31  H    0.534827   0.000004  -0.000098   0.000000  -0.000000  -0.000000
    32  N    0.000004   7.215648  -0.060817  -0.000067   0.000000   0.000000
    33  N   -0.000098  -0.060817   7.062864   0.000000  -0.000000  -0.000000
    34  N    0.000000  -0.000067   0.000000   7.215652  -0.060817   0.004639
    35  N   -0.000000   0.000000  -0.000000  -0.060817   7.062860   0.300073
    36  C   -0.000000   0.000000  -0.000000   0.004639   0.300073   5.060697
    37  H    0.000000   0.000000   0.000000  -0.000066  -0.041305   0.377169
    38  H    0.000000   0.000000   0.000000  -0.000066  -0.041308   0.377176
    39  H    0.000000  -0.000000   0.000001   0.000161  -0.032433   0.376146
    40  C   -0.000002   0.004639   0.300073   0.000000  -0.000000   0.000000
    41  H   -0.000000  -0.000066  -0.041308   0.000000   0.000000  -0.000000
    42  H   -0.000000  -0.000066  -0.041305   0.000000   0.000000  -0.000000
    43  H   -0.000000   0.000161  -0.032433  -0.000000   0.000001  -0.000000
    44  Co  -0.000011  -0.072600  -0.054965  -0.072600  -0.054965  -0.007459
              37         38         39         40         41         42
     1  C   -0.000001  -0.000001  -0.000014  -0.000010  -0.000001  -0.000001
     2  C   -0.000000  -0.000000   0.000001  -0.000032   0.000004   0.000004
     3  C    0.000000   0.000000   0.000000   0.000002  -0.000000  -0.000000
     4  C    0.000000   0.000000  -0.000000  -0.000000   0.000000   0.000000
     5  C   -0.000000  -0.000000   0.000000   0.000000   0.000000   0.000000
     6  C    0.000004   0.000004  -0.000008   0.000000  -0.000000  -0.000000
     7  H    0.000000   0.000000   0.000000  -0.000000   0.000000   0.000000
     8  H   -0.000000  -0.000000   0.000000   0.000000  -0.000000  -0.000000
     9  H    0.000000   0.000000   0.000000  -0.000000   0.000000   0.000000
    10  C   -0.000131  -0.000131   0.000013   0.000000  -0.000000  -0.000000
    11  C    0.000555   0.000549   0.000653   0.000013  -0.000000  -0.000000
    12  C   -0.001066  -0.001062   0.002664   0.000000  -0.000000  -0.000000
    13  C   -0.000009  -0.000009   0.000005   0.000000  -0.000000  -0.000000
    14  C    0.002515   0.002513   0.000011   0.000000  -0.000000  -0.000000
    15  C   -0.000001  -0.000001  -0.000000  -0.000000   0.000000   0.000000
    16  H   -0.000000  -0.000000  -0.000000   0.000000  -0.000000  -0.000000
    17  C   -0.000004  -0.000004   0.000001   0.000000   0.000000   0.000000
    18  H    0.000512   0.000511  -0.000032  -0.000000  -0.000000  -0.000000
    19  H   -0.000000  -0.000000  -0.000000   0.000000  -0.000000  -0.000000
    20  H   -0.000000  -0.000000  -0.000000  -0.000000   0.000000   0.000000
    21  C   -0.000000  -0.000000   0.000000   0.005496  -0.000131  -0.000131
    22  C   -0.000000  -0.000000  -0.000002  -0.045150   0.000549   0.000556
    23  C   -0.000000  -0.000000  -0.000000  -0.048494  -0.001062  -0.001066
    24  C   -0.000000  -0.000000   0.000000  -0.000120  -0.000009  -0.000009
    25  C   -0.000000  -0.000000   0.000000  -0.002669   0.002513   0.002515
    26  C    0.000000   0.000000  -0.000000   0.000009  -0.000001  -0.000001
    27  H   -0.000000  -0.000000   0.000000   0.000003  -0.000000  -0.000000
    28  C    0.000000   0.000000  -0.000000  -0.000109  -0.000004  -0.000004
    29  H   -0.000000  -0.000000   0.000000   0.004222   0.000511   0.000512
    30  H   -0.000000  -0.000000  -0.000000  -0.000000  -0.000000  -0.000000
    31  H    0.000000   0.000000   0.000000  -0.000002  -0.000000  -0.000000
    32  N    0.000000   0.000000  -0.000000   0.004639  -0.000066  -0.000066
    33  N    0.000000   0.000000   0.000001   0.300073  -0.041308  -0.041305
    34  N   -0.000066  -0.000066   0.000161   0.000000   0.000000   0.000000
    35  N   -0.041305  -0.041308  -0.032433  -0.000000   0.000000   0.000000
    36  C    0.377169   0.377176   0.376146   0.000000  -0.000000  -0.000000
    37  H    0.523968  -0.040048  -0.024974  -0.000000   0.000000  -0.000000
    38  H   -0.040048   0.523965  -0.024981  -0.000000  -0.000000   0.000000
    39  H   -0.024974  -0.024981   0.468576  -0.000000   0.000000   0.000000
    40  C   -0.000000  -0.000000  -0.000000   5.060697   0.377176   0.377169
    41  H    0.000000  -0.000000   0.000000   0.377176   0.523964  -0.040048
    42  H   -0.000000   0.000000   0.000000   0.377169  -0.040048   0.523968
    43  H    0.000000   0.000000  -0.000024   0.376146  -0.024982  -0.024974
    44  Co   0.000670   0.000673   0.008575  -0.007459   0.000673   0.000670
              43         44
     1  C   -0.000014   0.256216
     2  C   -0.000008  -0.058032
     3  C    0.000000   0.006657
     4  C   -0.000000   0.002043
     5  C    0.000000   0.006657
     6  C    0.000001  -0.058031
     7  H    0.000000  -0.000592
     8  H    0.000000   0.000139
     9  H    0.000000  -0.000592
    10  C    0.000000   0.007096
    11  C   -0.000002   0.362244
    12  C   -0.000000   0.005884
    13  C    0.000000  -0.001275
    14  C    0.000000  -0.001363
    15  C   -0.000000   0.000168
    16  H    0.000000   0.000048
    17  C   -0.000000   0.000150
    18  H    0.000000   0.000027
    19  H   -0.000000   0.000012
    20  H    0.000000  -0.000011
    21  C    0.000013   0.007096
    22  C    0.000653   0.362244
    23  C    0.002664   0.005884
    24  C    0.000005  -0.001275
    25  C    0.000011  -0.001363
    26  C   -0.000000   0.000168
    27  H   -0.000000   0.000048
    28  C    0.000001   0.000150
    29  H   -0.000032   0.000027
    30  H   -0.000000   0.000012
    31  H   -0.000000  -0.000011
    32  N    0.000161  -0.072600
    33  N   -0.032433  -0.054965
    34  N   -0.000000  -0.072600
    35  N    0.000001  -0.054965
    36  C   -0.000000  -0.007459
    37  H    0.000000   0.000670
    38  H    0.000000   0.000673
    39  H   -0.000024   0.008575
    40  C    0.376146  -0.007459
    41  H   -0.024982   0.000673
    42  H   -0.024974   0.000670
    43  H    0.468577   0.008575
    44  Co   0.008575  16.485370
          Atomic-Atomic Spin Densities.
               1          2          3          4          5          6
     1  C    0.000002  -0.000000  -0.000000  -0.000000  -0.000000  -0.000000
     2  C   -0.000000  -0.000000   0.000000   0.000000   0.000000  -0.000000
     3  C   -0.000000   0.000000   0.000000  -0.000000  -0.000000   0.000000
     4  C   -0.000000   0.000000  -0.000000   0.000000  -0.000000   0.000000
     5  C   -0.000000   0.000000  -0.000000  -0.000000   0.000000   0.000000
     6  C   -0.000000  -0.000000   0.000000   0.000000   0.000000  -0.000000
     7  H    0.000000  -0.000000  -0.000000  -0.000000   0.000000  -0.000000
     8  H   -0.000000  -0.000000   0.000000   0.000000   0.000000  -0.000000
     9  H    0.000000  -0.000000   0.000000  -0.000000  -0.000000  -0.000000
    10  C    0.000000  -0.000000  -0.000000   0.000000   0.000000   0.000000
    11  C   -0.000000   0.000000  -0.000000   0.000000  -0.000000  -0.000000
    12  C   -0.000000  -0.000000   0.000000   0.000000   0.000000   0.000000
    13  C    0.000000   0.000000  -0.000000   0.000000   0.000000   0.000000
    14  C    0.000000   0.000000  -0.000000   0.000000   0.000000   0.000000
    15  C    0.000000   0.000000  -0.000000   0.000000  -0.000000  -0.000000
    16  H    0.000000  -0.000000   0.000000  -0.000000   0.000000  -0.000000
    17  C   -0.000000  -0.000000   0.000000   0.000000   0.000000   0.000000
    18  H   -0.000000   0.000000   0.000000  -0.000000  -0.000000  -0.000000
    19  H   -0.000000  -0.000000   0.000000  -0.000000   0.000000   0.000000
    20  H    0.000000  -0.000000  -0.000000   0.000000   0.000000   0.000000
    21  C    0.000000   0.000000   0.000000   0.000000  -0.000000  -0.000000
    22  C   -0.000000  -0.000000  -0.000000   0.000000  -0.000000   0.000000
    23  C   -0.000000   0.000000   0.000000   0.000000   0.000000  -0.000000
    24  C    0.000000   0.000000   0.000000   0.000000  -0.000000   0.000000
    25  C    0.000000   0.000000   0.000000   0.000000  -0.000000   0.000000
    26  C    0.000000  -0.000000  -0.000000   0.000000  -0.000000   0.000000
    27  H    0.000000  -0.000000   0.000000  -0.000000   0.000000  -0.000000
    28  C   -0.000000   0.000000   0.000000   0.000000   0.000000  -0.000000
    29  H   -0.000000  -0.000000  -0.000000  -0.000000   0.000000   0.000000
    30  H   -0.000000   0.000000   0.000000  -0.000000   0.000000  -0.000000
    31  H    0.000000   0.000000   0.000000   0.000000  -0.000000  -0.000000
    32  N    0.000000   0.000000  -0.000000  -0.000000   0.000000  -0.000000
    33  N    0.000000   0.000000   0.000000   0.000000  -0.000000   0.000000
    34  N    0.000000  -0.000000   0.000000  -0.000000  -0.000000   0.000000
    35  N    0.000000   0.000000  -0.000000   0.000000   0.000000   0.000000
    36  C    0.000000  -0.000000  -0.000000   0.000000  -0.000000  -0.000000
    37  H   -0.000000   0.000000  -0.000000  -0.000000  -0.000000  -0.000000
    38  H    0.000000  -0.000000   0.000000   0.000000   0.000000   0.000000
    39  H   -0.000000  -0.000000   0.000000  -0.000000  -0.000000   0.000000
    40  C    0.000000  -0.000000  -0.000000   0.000000  -0.000000  -0.000000
    41  H    0.000000   0.000000   0.000000   0.000000   0.000000  -0.000000
    42  H   -0.000000  -0.000000  -0.000000  -0.000000  -0.000000   0.000000
    43  H   -0.000000   0.000000  -0.000000  -0.000000   0.000000  -0.000000
    44  Co  -0.000000   0.000000  -0.000000  -0.000000  -0.000000   0.000000
               7          8          9         10         11         12
     1  C    0.000000  -0.000000   0.000000   0.000000  -0.000000  -0.000000
     2  C   -0.000000  -0.000000  -0.000000  -0.000000   0.000000  -0.000000
     3  C   -0.000000   0.000000   0.000000  -0.000000  -0.000000   0.000000
     4  C   -0.000000   0.000000  -0.000000   0.000000   0.000000   0.000000
     5  C    0.000000   0.000000  -0.000000   0.000000  -0.000000   0.000000
     6  C   -0.000000  -0.000000  -0.000000   0.000000  -0.000000   0.000000
     7  H    0.000000  -0.000000   0.000000  -0.000000   0.000000  -0.000000
     8  H   -0.000000  -0.000000  -0.000000  -0.000000   0.000000  -0.000000
     9  H    0.000000  -0.000000   0.000000  -0.000000   0.000000  -0.000000
    10  C   -0.000000  -0.000000  -0.000000  -0.000000   0.000000  -0.000000
    11  C    0.000000   0.000000   0.000000   0.000000   0.000000   0.000000
    12  C   -0.000000  -0.000000  -0.000000  -0.000000   0.000000  -0.000000
    13  C   -0.000000   0.000000  -0.000000   0.000000   0.000000  -0.000000
    14  C   -0.000000  -0.000000  -0.000000  -0.000000  -0.000000  -0.000000
    15  C    0.000000   0.000000  -0.000000  -0.000000  -0.000000   0.000000
    16  H   -0.000000  -0.000000  -0.000000  -0.000000   0.000000  -0.000000
    17  C   -0.000000  -0.000000  -0.000000   0.000000   0.000000  -0.000000
    18  H    0.000000   0.000000   0.000000   0.000000   0.000000   0.000000
    19  H   -0.000000  -0.000000  -0.000000   0.000000   0.000000  -0.000000
    20  H   -0.000000  -0.000000  -0.000000  -0.000000  -0.000000   0.000000
    21  C   -0.000000  -0.000000  -0.000000  -0.000000   0.000000  -0.000000
    22  C    0.000000   0.000000   0.000000   0.000000   0.000000   0.000000
    23  C   -0.000000  -0.000000  -0.000000  -0.000000   0.000000   0.000000
    24  C   -0.000000   0.000000  -0.000000   0.000000  -0.000000  -0.000000
    25  C   -0.000000  -0.000000  -0.000000   0.000000  -0.000000  -0.000000
    26  C   -0.000000   0.000000   0.000000   0.000000   0.000000  -0.000000
    27  H   -0.000000  -0.000000  -0.000000  -0.000000   0.000000  -0.000000
    28  C   -0.000000  -0.000000  -0.000000  -0.000000   0.000000  -0.000000
    29  H    0.000000   0.000000   0.000000  -0.000000   0.000000   0.000000
    30  H   -0.000000  -0.000000  -0.000000  -0.000000  -0.000000   0.000000
    31  H   -0.000000  -0.000000  -0.000000   0.000000  -0.000000  -0.000000
    32  N    0.000000  -0.000000   0.000000  -0.000000   0.000000   0.000000
    33  N   -0.000000  -0.000000  -0.000000   0.000000  -0.000000  -0.000000
    34  N    0.000000  -0.000000   0.000000  -0.000000  -0.000000   0.000000
    35  N   -0.000000  -0.000000  -0.000000   0.000000  -0.000000  -0.000000
    36  C   -0.000000   0.000000   0.000000   0.000000  -0.000000   0.000000
    37  H    0.000000   0.000000   0.000000   0.000000   0.000000   0.000000
    38  H   -0.000000  -0.000000  -0.000000  -0.000000  -0.000000  -0.000000
    39  H    0.000000  -0.000000   0.000000  -0.000000   0.000000   0.000000
    40  C    0.000000   0.000000  -0.000000   0.000000  -0.000000  -0.000000
    41  H   -0.000000  -0.000000  -0.000000   0.000000  -0.000000  -0.000000
    42  H    0.000000   0.000000   0.000000  -0.000000   0.000000   0.000000
    43  H    0.000000  -0.000000   0.000000  -0.000000   0.000000   0.000000
    44  Co   0.000000   0.000000   0.000000   0.000000   0.000000   0.000000
              13         14         15         16         17         18
     1  C    0.000000   0.000000   0.000000   0.000000  -0.000000  -0.000000
     2  C    0.000000   0.000000   0.000000  -0.000000  -0.000000   0.000000
     3  C   -0.000000  -0.000000  -0.000000   0.000000   0.000000   0.000000
     4  C    0.000000   0.000000   0.000000  -0.000000   0.000000  -0.000000
     5  C    0.000000   0.000000  -0.000000   0.000000   0.000000  -0.000000
     6  C    0.000000   0.000000  -0.000000  -0.000000   0.000000  -0.000000
     7  H   -0.000000  -0.000000   0.000000  -0.000000  -0.000000   0.000000
     8  H    0.000000  -0.000000   0.000000  -0.000000  -0.000000   0.000000
     9  H   -0.000000  -0.000000  -0.000000  -0.000000  -0.000000   0.000000
    10  C    0.000000  -0.000000  -0.000000  -0.000000   0.000000   0.000000
    11  C    0.000000  -0.000000  -0.000000   0.000000   0.000000   0.000000
    12  C   -0.000000  -0.000000   0.000000  -0.000000  -0.000000   0.000000
    13  C    0.000000   0.000000  -0.000000  -0.000000  -0.000000  -0.000000
    14  C    0.000000   0.000000  -0.000000  -0.000000  -0.000000  -0.000000
    15  C   -0.000000  -0.000000   0.000000   0.000000   0.000000   0.000000
[...]
    40 C(13)  Bbb    -0.0000    -0.000    -0.000    -0.000  0.3768  0.9259  0.0265
              Bcc     0.0000     0.000     0.000     0.000  0.7872 -0.3352  0.5176
 
              Baa    -0.0000    -0.000    -0.000    -0.000 -0.0532 -0.5179  0.8538
    41 H(1)   Bbb    -0.0000    -0.000    -0.000    -0.000 -0.2149  0.8409  0.4967
              Bcc     0.0000     0.000     0.000     0.000  0.9752  0.1571  0.1560
 
              Baa    -0.0000    -0.000    -0.000    -0.000  0.9051  0.3059 -0.2952
    42 H(1)   Bbb     0.0000     0.000     0.000     0.000 -0.4088  0.8170 -0.4068
              Bcc     0.0000     0.000     0.000     0.000  0.1167  0.4889  0.8645
 
              Baa    -0.0000    -0.000    -0.000    -0.000 -0.5620 -0.4847  0.6702
    43 H(1)   Bbb     0.0000     0.000     0.000     0.000 -0.4422  0.8609  0.2517
              Bcc     0.0000     0.000     0.000     0.000  0.6990  0.1549  0.6982
 
              Baa    -0.0001    -0.019    -0.007    -0.006 -0.0020  0.7267  0.6870
    44 Co(59) Bbb     0.0001     0.008     0.003     0.003  0.9999  0.0132 -0.0110
              Bcc     0.0001     0.011     0.004     0.004  0.0171 -0.6868  0.7266
 

 ---------------------------------------------------------------------------------

   1 Symmetry operations used in ECPInt.
 ECPInt:  NShTT=   11781 NPrTT=   71406 LenC2=    9520 LenP2D=   32018.
 LDataN:  DoStor=T MaxTD1= 7 Len=  274
 Calling FoFJK, ICntrl=      2127 FMM=F ISym2X=0 I1Cent= 0 IOpClX= 1 NMat=1 NMatS=1 NMatT=0.
 -------------------------------------------------------------------
 Center     Atomic                   Forces (Hartrees/Bohr)
 Number     Number              X              Y              Z
 -------------------------------------------------------------------
      1        6          -0.000004185   -0.087801874   -0.000002114
      2        6           0.070083137    0.042189572    0.000001012
      3        6          -0.005618996    0.002948201    0.000001672
      4        6           0.000000898    0.002215002   -0.000000753
      5        6           0.005618197    0.002950344    0.000001505
      6        6          -0.070074443    0.042186115   -0.000000064
      7        1           0.000012316    0.004929655   -0.000000678
      8        1          -0.000000098   -0.001273744   -0.000000603
      9        1          -0.000013153    0.004929333   -0.000000731
     10        6          -0.011522120   -0.008865186    0.000000590
     11        6           0.000854018    0.005645421   -0.000018947
     12        6           0.012358994    0.007448817   -0.000000391
     13        6           0.013591991    0.006009731   -0.000001385
     14        6           0.002253507    0.003632157   -0.000000653
     15        6          -0.013292183    0.005275051    0.000000920
     16        1           0.000352549   -0.000674457   -0.000000357
     17        6           0.000265369   -0.010026028   -0.000000138
     18        1           0.000389112    0.001150143    0.000000076
     19        1           0.000379872    0.000203781   -0.000000084
     20        1          -0.000277817   -0.000029893    0.000000236
     21        6           0.011522372   -0.008869273   -0.000000463
     22        6          -0.000851819    0.005645435   -0.000021407
     23        6          -0.012340452    0.007453744   -0.000000574
     24        6          -0.013590838    0.006013479   -0.000000911
     25        6          -0.002266609    0.003621876   -0.000001159
     26        6           0.013289008    0.005269800    0.000000337
     27        1          -0.000352656   -0.000675081   -0.000000168
     28        6          -0.000263469   -0.010019021    0.000000118
     29        1          -0.000386989    0.001154372   -0.000000186
     30        1          -0.000379618    0.000204174   -0.000000113
     31        1           0.000277532   -0.000030497    0.000000250
     32        7          -0.023276131   -0.062054141    0.000008806
     33        7           0.026544749    0.022035345    0.000012105
     34        7           0.023268607   -0.062050243    0.000005791
     35        7          -0.026551951    0.022034806    0.000010213
     36        6          -0.000187635   -0.010884690   -0.000001739
     37        1           0.000683768    0.001668991    0.000740671
     38        1           0.000683754    0.001669782   -0.000741063
     39        1           0.000652172    0.002157154    0.000001444
     40        6           0.000189833   -0.010884263   -0.000001762
     41        1          -0.000683719    0.001670389   -0.000740944
     42        1          -0.000684026    0.001669099    0.000740188
     43        1          -0.000652658    0.002156933    0.000001623
     44       27          -0.000000191    0.057999692    0.000009830
 -------------------------------------------------------------------
 Cartesian Forces:  Max     0.087801874 RMS     0.016970257

 GradGradGradGradGradGradGradGradGradGradGradGradGradGradGradGradGradGrad
 Berny optimization.
 Search for a local minimum.
 Step number   1 out of a maximum of    2
 All quantities printed in internal units (Hartrees-Bohrs-Radians)
 Second derivative matrix not updated -- first step.
 ITU=  0
     Eigenvalues ---    0.00055   0.00057   0.00198   0.00244   0.00245
     Eigenvalues ---    0.00385   0.00442   0.00611   0.00658   0.00669
     Eigenvalues ---    0.00670   0.00820   0.00843   0.01325   0.01569
     Eigenvalues ---    0.01807   0.02015   0.02030   0.02526   0.02528
     Eigenvalues ---    0.03054   0.03115   0.04097   0.04198   0.04419
     Eigenvalues ---    0.04497   0.04675   0.05373   0.05525   0.06160
     Eigenvalues ---    0.06209   0.06893   0.06925   0.07019   0.07054
     Eigenvalues ---    0.07056   0.07268   0.07669   0.07737   0.09584
     Eigenvalues ---    0.09917   0.10169   0.10357   0.11512   0.11896
     Eigenvalues ---    0.11951   0.12166   0.12236   0.12803   0.13361
     Eigenvalues ---    0.13364   0.13443   0.13647   0.14735   0.15382
     Eigenvalues ---    0.15613   0.15864   0.19382   0.20004   0.20078
     Eigenvalues ---    0.21055   0.21983   0.24056   0.24769   0.28622
     Eigenvalues ---    0.29500   0.29811   0.30278   0.30786   0.31632
     Eigenvalues ---    0.31932   0.34666   0.35797   0.36518   0.37535
     Eigenvalues ---    0.37724   0.41163   0.41796   0.44584   0.47226
     Eigenvalues ---    0.48343   0.48440   0.49207   0.50987   0.51995
     Eigenvalues ---    0.53484   0.54250   0.54896   0.62672   0.63542
     Eigenvalues ---    0.68683   0.71206   0.72651   0.73947   0.86609
     Eigenvalues ---    0.90346   0.91041   0.91297   0.93070   0.94426
     Eigenvalues ---    0.95220   0.96886   0.99988   1.03948   1.12259
     Eigenvalues ---    1.15605   1.15756   1.18259   1.20632   1.24289
     Eigenvalues ---    1.30855   1.37892   1.37989   1.45346   1.47102
     Eigenvalues ---    1.49428   1.50759   1.53529   1.60740   1.64194
     Eigenvalues ---    1.65943   1.66799   1.77931   1.79177   1.84799
     Eigenvalues ---    1.88213
 Quadratic step=7.047D-01 exceeds max=3.000D-01 adjusted using Lamda=-4.780D-02.
 Angle between NR and scaled steps=  41.21 degrees.
 Angle between quadratic step and forces=  43.28 degrees.
 Linear search not attempted -- first point.
 B after Tr=     0.000000   -0.000395   -0.000001
         Rot=    1.000000   -0.000000   -0.000000   -0.000000 Ang=  -0.00 deg.
 Variable       Old X    -DE/DX   Delta X   Delta X   Delta X     New X
                                 (Linear)    (Quad)   (Total)
    X1        0.00001  -0.00000   0.00000  -0.00000  -0.00000   0.00000
    Y1        1.49218  -0.08780   0.00000  -0.15723  -0.15763   1.33456
    Z1        0.00017  -0.00000   0.00000  -0.00001  -0.00001   0.00016
    X2       -2.41655   0.07008   0.00000   0.09136   0.09136  -2.32519
    Y2        2.56650   0.04219   0.00000  -0.02015  -0.02055   2.54596
    Z2        0.00007   0.00000   0.00000   0.00001   0.00001   0.00008
    X3       -2.35405  -0.00562   0.00000   0.02510   0.02510  -2.32895
    Y3        5.20765   0.00295   0.00000  -0.00310  -0.00350   5.20416
    Z3       -0.00002   0.00000   0.00000   0.00001   0.00001  -0.00001
    X4        0.00000   0.00000   0.00000   0.00000   0.00000   0.00000
    Y4        6.43494   0.00222   0.00000   0.01881   0.01842   6.45335
    Z4        0.00001  -0.00000   0.00000  -0.00000   0.00000   0.00001
    X5        2.35406   0.00562   0.00000  -0.02510  -0.02510   2.32896
    Y5        5.20765   0.00295   0.00000  -0.00310  -0.00349   5.20416
    Z5        0.00007   0.00000   0.00000   0.00001   0.00001   0.00008
    X6        2.41655  -0.07007   0.00000  -0.09136  -0.09136   2.32519
    Y6        2.56651   0.04219   0.00000  -0.02015  -0.02055   2.54596
    Z6        0.00014  -0.00000   0.00000   0.00000   0.00000   0.00014
    X7       -4.07903   0.00001   0.00000   0.02060   0.02060  -4.05843
    Y7        6.31075   0.00493   0.00000   0.00706   0.00667   6.31742
    Z7       -0.00008  -0.00000   0.00000   0.00000   0.00000  -0.00008
    X8        0.00000  -0.00000   0.00000  -0.00000  -0.00000   0.00000
    Y8        8.49188  -0.00127   0.00000   0.01337   0.01298   8.50486
    Z8       -0.00001  -0.00000   0.00000  -0.00001  -0.00001  -0.00003
    X9        4.07904  -0.00001   0.00000  -0.02060  -0.02060   4.05844
    Y9        6.31075   0.00493   0.00000   0.00707   0.00667   6.31742
    Z9        0.00008  -0.00000   0.00000  -0.00000   0.00000   0.00009
   X10        6.97692  -0.01152   0.00000  -0.03235  -0.03235   6.94457
   Y10        1.10115  -0.00887   0.00000  -0.01580  -0.01620   1.08495
   Z10       -0.00006   0.00000   0.00000   0.00001   0.00001  -0.00005
   X11        3.62807   0.00085   0.00000  -0.03987  -0.03987   3.58820
   Y11       -1.72057   0.00565   0.00000   0.00807   0.00768  -1.71289
   Z11        0.00026  -0.00002   0.00000  -0.00005  -0.00005   0.00021
   X12        7.91627   0.01236   0.00000  -0.01299  -0.01299   7.90328
   Y12       -1.40469   0.00745   0.00000   0.00840   0.00800  -1.39669
   Z12       -0.00019  -0.00000   0.00000   0.00001   0.00001  -0.00018
   X13        8.59809   0.01359   0.00000  -0.01655  -0.01655   8.58155
   Y13        3.14293   0.00601   0.00000  -0.00136  -0.00175   3.14117
   Z13       -0.00012  -0.00000   0.00000  -0.00000  -0.00000  -0.00012
   X14       10.49470   0.00225   0.00000  -0.01160  -0.01160  10.48311
   Y14       -1.88638   0.00363   0.00000   0.00268   0.00228  -1.88409
   Z14       -0.00038  -0.00000   0.00000   0.00000   0.00000  -0.00037
   X15       11.21325  -0.01329   0.00000  -0.03182  -0.03182  11.18143
   Y15        2.65387   0.00528   0.00000  -0.00163  -0.00202   2.65184
   Z15       -0.00032   0.00000   0.00000   0.00000   0.00000  -0.00032
   X16        7.90165   0.00035   0.00000  -0.00768  -0.00768   7.89397
   Y16        5.06974  -0.00067   0.00000  -0.00067  -0.00106   5.06867
   Z16        0.00001  -0.00000   0.00000  -0.00001  -0.00001   0.00001
   X17       12.13259   0.00027   0.00000  -0.01573  -0.01573  12.11686
   Y17        0.19664  -0.01003   0.00000  -0.00852  -0.00892   0.18772
   Z17       -0.00046  -0.00000   0.00000   0.00000   0.00000  -0.00046
   X18       11.20931   0.00039   0.00000  -0.00475  -0.00475  11.20456
   Y18       -3.81222   0.00115   0.00000   0.00693   0.00653  -3.80568
   Z18       -0.00045   0.00000   0.00000   0.00000   0.00000  -0.00045
   X19       12.51689   0.00038   0.00000  -0.02335  -0.02335  12.49354
   Y19        4.23641   0.00020   0.00000  -0.00398  -0.00438   4.23203
   Z19       -0.00037  -0.00000   0.00000  -0.00000  -0.00000  -0.00037
   X20       14.15957  -0.00028   0.00000  -0.01380  -0.01380  14.14577
   Y20       -0.12924  -0.00003   0.00000  -0.00290  -0.00329  -0.13253
   Z20       -0.00062   0.00000   0.00000   0.00000   0.00000  -0.00062
   X21       -6.97691   0.01152   0.00000   0.03235   0.03235  -6.94456
   Y21        1.10114  -0.00887   0.00000  -0.01581  -0.01620   1.08494
   Z21       -0.00008  -0.00000   0.00000   0.00001   0.00001  -0.00007
   X22       -3.62806  -0.00085   0.00000   0.03987   0.03987  -3.58819
   Y22       -1.72057   0.00565   0.00000   0.00807   0.00768  -1.71290
   Z22        0.00020  -0.00002   0.00000  -0.00005  -0.00005   0.00014
   X23       -7.91627  -0.01234   0.00000   0.01300   0.01300  -7.90327
   Y23       -1.40471   0.00745   0.00000   0.00840   0.00801  -1.39670
   Z23       -0.00014  -0.00000   0.00000   0.00001   0.00001  -0.00013
   X24       -8.59809  -0.01359   0.00000   0.01655   0.01655  -8.58154
   Y24        3.14291   0.00601   0.00000  -0.00136  -0.00175   3.14116
   Z24       -0.00011  -0.00000   0.00000  -0.00000  -0.00000  -0.00011
   X25      -10.49468  -0.00227   0.00000   0.01159   0.01159 -10.48309
   Y25       -1.88638   0.00362   0.00000   0.00267   0.00228  -1.88411
   Z25       -0.00019  -0.00000   0.00000  -0.00000  -0.00000  -0.00020
   X26      -11.21324   0.01329   0.00000   0.03182   0.03182 -11.18142
   Y26        2.65386   0.00527   0.00000  -0.00163  -0.00203   2.65183
   Z26       -0.00019   0.00000   0.00000  -0.00000  -0.00000  -0.00019
   X27       -7.90165  -0.00035   0.00000   0.00768   0.00768  -7.89397
   Y27        5.06972  -0.00068   0.00000  -0.00067  -0.00106   5.06866
   Z27       -0.00005  -0.00000   0.00000  -0.00000  -0.00000  -0.00005
   X28      -12.13258  -0.00026   0.00000   0.01573   0.01573 -12.11685
   Y28        0.19661  -0.01002   0.00000  -0.00852  -0.00891   0.18770
   Z28       -0.00024   0.00000   0.00000  -0.00000  -0.00000  -0.00024
   X29      -11.20929  -0.00039   0.00000   0.00475   0.00475 -11.20454
   Y29       -3.81223   0.00115   0.00000   0.00693   0.00653  -3.80570
   Z29       -0.00019  -0.00000   0.00000  -0.00000  -0.00001  -0.00020
   X30      -12.51689  -0.00038   0.00000   0.02335   0.02335 -12.49354
   Y30        4.23639   0.00020   0.00000  -0.00398  -0.00438   4.23201
   Z30       -0.00021  -0.00000   0.00000  -0.00000  -0.00000  -0.00021
   X31      -14.15956   0.00028   0.00000   0.01380   0.01380 -14.14576
   Y31       -0.12927  -0.00003   0.00000  -0.00289  -0.00329  -0.13255
   Z31       -0.00029   0.00000   0.00000   0.00000   0.00000  -0.00029
   X32       -4.35700  -0.02328   0.00000   0.02972   0.02972  -4.32727
   Y32        0.88935  -0.06205   0.00000  -0.06003  -0.06042   0.82893
   Z32        0.00003   0.00001   0.00000   0.00002   0.00002   0.00005
   X33       -5.89670   0.02654   0.00000   0.05461   0.05461  -5.84209
   Y33       -3.03158   0.02204   0.00000   0.03102   0.03062  -3.00096
   Z33       -0.00009   0.00001   0.00000   0.00002   0.00002  -0.00007
   X34        4.35701   0.02327   0.00000  -0.02973  -0.02973   4.32728
   Y34        0.88935  -0.06205   0.00000  -0.06003  -0.06042   0.82893
   Z34        0.00015   0.00001   0.00000   0.00001   0.00001   0.00015
   X35        5.89671  -0.02655   0.00000  -0.05461  -0.05461   5.84211
   Y35       -3.03158   0.02203   0.00000   0.03102   0.03062  -3.00095
   Z35       -0.00007   0.00001   0.00000   0.00002   0.00001  -0.00005
   X36        6.05330  -0.00019   0.00000  -0.02237  -0.02237   6.03093
   Y36       -5.72462  -0.01088   0.00000   0.01120   0.01080  -5.71382
   Z36        0.00002  -0.00000   0.00000   0.00001   0.00000   0.00002
   X37        7.03117   0.00068   0.00000  -0.00479  -0.00479   7.02639
   Y37       -6.42888   0.00167   0.00000   0.02749   0.02709  -6.40179
   Z37       -1.68751   0.00074   0.00000   0.00392   0.00391  -1.68360
   X38        7.03029   0.00068   0.00000  -0.00478  -0.00478   7.02550
   Y38       -6.42891   0.00167   0.00000   0.02748   0.02709  -6.40182
   Z38        1.68806  -0.00074   0.00000  -0.00391  -0.00391   1.68415
   X39        4.13673   0.00065   0.00000  -0.01380  -0.01380   4.12293
   Y39       -6.49817   0.00216   0.00000   0.00502   0.00462  -6.49355
   Z39       -0.00052   0.00000   0.00000   0.00001   0.00001  -0.00051
   X40       -6.05329   0.00019   0.00000   0.02237   0.02237  -6.03091
   Y40       -5.72463  -0.01088   0.00000   0.01120   0.01080  -5.71383
   Z40        0.00008  -0.00000   0.00000   0.00001   0.00000   0.00009
   X41       -7.03015  -0.00068   0.00000   0.00478   0.00478  -7.02536
   Y41       -6.42888   0.00167   0.00000   0.02749   0.02709  -6.40179
   Z41        1.68821  -0.00074   0.00000  -0.00390  -0.00391   1.68430
   X42       -7.03128  -0.00068   0.00000   0.00479   0.00479  -7.02649
   Y42       -6.42894   0.00167   0.00000   0.02749   0.02710  -6.40184
   Z42       -1.68735   0.00074   0.00000   0.00392   0.00391  -1.68344
   X43       -4.13672  -0.00065   0.00000   0.01380   0.01380  -4.12292
   Y43       -6.49817   0.00216   0.00000   0.00502   0.00462  -6.49355
   Z43       -0.00058   0.00000   0.00000   0.00002   0.00001  -0.00057
   X44        0.00001  -0.00000   0.00000  -0.00000  -0.00000   0.00001
   Y44       -2.36603   0.05800   0.00000   0.10801   0.10762  -2.25841
   Z44        0.00020   0.00001   0.00000  -0.00003  -0.00003   0.00017
         Item               Value     Threshold  Converged?
 Maximum Force            0.087802     0.000450     NO 
 RMS     Force            0.016970     0.000300     NO 
 Maximum Displacement     0.157628     0.001800     NO 
 RMS     Displacement     0.026116     0.001200     NO 
 Predicted change in Energy=-2.344843D-02
 GradGradGradGradGradGradGradGradGradGradGradGradGradGradGradGradGradGrad

 Unable to Open any file for archive entry.
 1\1\GINC-X11P1N5\Force\UPBE1PBE\GenECP\C22H17Co1N4\MAYUMIAO\17-Jul-202
 4\0\\# pbe1pbe em=gd3bj genecp g09default scf=(xqc,maxcycle=64) force 
 guess=read nosymm\\Title Card\\0,1\C,0.0000037,0.78962985,0.0000915\C,
 -1.27878239,1.3581355,0.00003621\C,-1.24571038,2.75577021,-0.00001237\
 C,0.00000145,3.40522178,0.00000457\C,1.24571418,2.75577047,0.00003456\
 C,1.27878171,1.35813752,0.00007388\H,-2.15853048,3.33950753,-0.0000434
 \H,0.00000171,4.49370818,-0.00000775\H,2.15853659,3.33950613,0.0000449
 7\C,3.69202686,0.58270102,-0.00003115\C,1.91989339,-0.91048547,0.00013
 847\C,4.18911006,-0.74333066,-0.00009807\C,4.54991534,1.66316428,-0.00
 006114\C,5.55355854,-0.99822814,-0.00019894\C,5.93379533,1.4043667,-0.
 00017176\H,4.18137219,2.68278908,0.00000573\C,6.42029,0.10405485,-0.00
 024303\H,5.93171006,-2.01733787,-0.0002397\H,6.62365094,2.24181,-0.000
 19678\H,7.49291984,-0.06839257,-0.00032797\C,-3.69202337,0.58269762,-0
 .00004309\C,-1.91988878,-0.91048748,0.000105\C,-4.18911151,-0.74333814
 ,-0.00007318\C,-4.54991407,1.66315584,-0.00005669\C,-5.55354624,-0.998
 23103,-0.00010148\C,-5.93379294,1.40436013,-0.00010135\H,-4.18137275,2
 .68278257,-0.00002445\C,-6.42028635,0.10404329,-0.00012438\H,-5.931703
 11,-2.01734659,-0.00010105\H,-6.62365225,2.24179999,-0.00010933\H,-7.4
 9291528,-0.06840439,-0.00015353\N,-2.30562419,0.4706244,0.00001593\N,-
 3.12039693,-1.60424503,-0.00004859\N,2.30563078,0.47062479,0.00007755\
 N,3.12040696,-1.60424062,-0.00003547\C,3.20326917,-3.02933712,0.000008
 76\H,3.72073648,-3.40201814,-0.89299298\H,3.72026717,-3.40203331,0.893
 28032\H,2.18906582,-3.4386826,-0.00027709\C,-3.20326191,-3.02934264,0.
 00004471\H,-3.72019357,-3.40201902,0.89336327\H,-3.72079268,-3.4020482
 4,-0.89290875\H,-2.1890569,-3.43868599,-0.0003075\Co,0.00000348,-1.252
 04935,0.00010538\\Version=ES64L-G16RevC.01\HF=-1212.1185745\S2=0.\S2-1
 =0.\S2A=0.\RMSD=4.698e-09\RMSF=1.697e-02\Dipole=-0.0000274,-1.4456353,
 -0.0000999\Quadrupole=13.5587976,7.2183089,-20.7771066,0.0000027,-0.00
 03941,0.0003227\PG=C01 [X(C22H17Co1N4)]\\@
 The archive entry for this job was punched.


 MEMORIES ARE LIKE AN ENGLISH GRAMMER LESSON -
 PRESENT TENSE, AND PAST PERFECT.
 Job cpu time:       0 days  0 hours 27 minutes 39.9 seconds.
 Elapsed time:       0 days  0 hours  0 minutes 30.3 seconds.
 File lengths (MBytes):  RWF=    184 Int=      0 D2E=      0 Chk=    162 Scr=      1
 Normal termination of Gaussian 16 at Wed Jul 17 21:20:54 2024.
