 Entering Gaussian System, Link 0=g16
 Input=JOBS/33_A.gjf
 Output=JOBS/33_A.log
 Initial command:
 /data/app/gaussian/C01-avx2//g16/l1.exe "/tmp/Gau-2094214.inp" -scrdir="/tmp/"
 Entering Link 1 = /data/app/gaussian/C01-avx2//g16/l1.exe PID=   2094215.
  
 Copyright (c) 1988-2019, Gaussian, Inc.  All Rights Reserved.
  
 This is part of the Gaussian(R) 16 program.  It is based on
 the Gaussian(R) 09 system (copyright 2009, Gaussian, Inc.),
 the Gaussian(R) 03 system (copyright 2003, Gaussian, Inc.),
 the Gaussian(R) 98 system (copyright 1998, Gaussian, Inc.),
 the Gaussian(R) 94 system (copyright 1995, Gaussian, Inc.),
 the Gaussian 92(TM) system (copyright 1992, Gaussian, Inc.),
 the Gaussian 90(TM) system (copyright 1990, Gaussian, Inc.),
 the Gaussian 88(TM) system (copyright 1988, Gaussian, Inc.),
 the Gaussian 86(TM) system (copyright 1986, Carnegie Mellon
 University), and the Gaussian 82(TM) system (copyright 1983,
 Carnegie Mellon University). Gaussian is a federally registered
 trademark of Gaussian, Inc.
  
 This software contains proprietary and confidential information,
 including trade secrets, belonging to Gaussian, Inc.
  
 This software is provided under written license and may be
 used, copied, transmitted, or stored only in accord with that
 written license.
  
 The following legend is applicable only to US Government
 contracts under FAR:
  
                    RESTRICTED RIGHTS LEGEND
  
 Use, reproduction and disclosure by the US Government is
 subject to restrictions as set forth in subparagraphs (a)
 and (c) of the Commercial Computer Software - Restricted
 Rights clause in FAR 52.227-19.
  
 Gaussian, Inc.
 340 Quinnipiac St., Bldg. 40, Wallingford CT 06492
  
  
 ---------------------------------------------------------------
 Warning -- This program may not be used in any manner that
 competes with the business of Gaussian, Inc. or will provide
 assistance to any competitor of Gaussian, Inc.  The licensee
 of this program is prohibited from giving any competitor of
 Gaussian, Inc. access to this program.  By using this program,
 the user acknowledges that Gaussian, Inc. is engaged in the
 business of creating and licensing software in the field of
 computational chemistry and represents and warrants to the
 licensee that it is not a competitor of Gaussian, Inc. and that
 it will not use this program in any manner prohibited above.
 ---------------------------------------------------------------
  

 Cite this work as:
 Gaussian 16, Revision C.01,
 M. J. Frisch, G. W. Trucks, H. B. Schlegel, G. E. Scuseria, 
 M. A. Robb, J. R. Cheeseman, G. Scalmani, V. Barone, 
 G. A. Petersson, H. Nakatsuji, X. Li, M. Caricato, A. V. Marenich, 
 J. Bloino, B. G. Janesko, R. Gomperts, B. Mennucci, H. P. Hratchian, 
 J. V. Ortiz, A. F. Izmaylov, J. L. Sonnenberg, D. Williams-Young, 
 F. Ding, F. Lipparini, F. Egidi, J. Goings, B. Peng, A. Petrone, 
 T. Henderson, D. Ranasinghe, V. G. Zakrzewski, J. Gao, N. Rega, 
 G. Zheng, W. Liang, M. Hada, M. Ehara, K. Toyota, R. Fukuda, 
 J. Hasegawa, M. Ishida, T. Nakajima, Y. Honda, O. Kitao, H. Nakai, 
 T. Vreven, K. Throssell, J. A. Montgomery, Jr., J. E. Peralta, 
 F. Ogliaro, M. J. Bearpark, J. J. Heyd, E. N. Brothers, K. N. Kudin, 
 V. N. Staroverov, T. A. Keith, R. Kobayashi, J. Normand, 
 K. Raghavachari, A. P. Rendell, J. C. Burant, S. S. Iyengar, 
 J. Tomasi, M. Cossi, J. M. Millam, M. Klene, C. Adamo, R. Cammi, 
 J. W. Ochterski, R. L. Martin, K. Morokuma, O. Farkas, 
 J. B. Foresman, and D. J. Fox, Gaussian, Inc., Wallingford CT, 2019.
 
 ******************************************
 Gaussian 16:  ES64L-G16RevC.01  3-Jul-2019
                17-Jul-2024 
 ******************************************
 %chk=a.chk
 %nprocshared=56
 Will use up to   56 processors via shared memory.
 %mem=96gb
 ----------------------------------------------------------------------
 # pbe1pbe em=gd3bj genecp g09default scf=(xqc,maxcycle=64) force guess
 =read nosymm
 ----------------------------------------------------------------------
 1/10=7,30=1,38=1,158=3,167=1/1,3;
 2/12=2,15=1,17=6,18=5,40=1/2;
 3/5=7,11=2,16=1,17=8,25=1,27=10,30=1,71=1,74=-13,75=-4,116=-2,124=41,158=3/1,2,3;
 4/5=1,60=-1/1;
 5/5=2,7=64,8=3,13=1,38=6,87=10/2,8;
 6/7=2,8=2,9=2,10=2,28=1,87=10/1;
 7/29=1,30=1,87=10/1,2,3,16;
 1/10=7,30=1,158=3,167=1/3;
 99//99;
 Using 2006 physical constants.
 ----------
 Title Card
 ----------
 Symbolic Z-matrix:
 Charge =  0 Multiplicity = 1
 6                     0.        0.80763   0.0001 
 6                    -1.28403   1.36066   0.00003 
 6                    -1.2465    2.7583   -0.00001 
 6                     0.        3.40655   0. 
 6                     1.24651   2.7583    0.00003 
 6                     1.28404   1.36066   0.00006 
 1                    -2.15886   3.34251  -0.00004 
 1                     0.        4.49455  -0.00001 
 1                     2.15887   3.34251   0.00005 
 6                     3.69786   0.58201  -0.00003 
 6                     1.92523  -0.9125    0.00014 
 6                     4.19474  -0.74284  -0.0001 
 6                     4.55599   1.66358  -0.00006 
 6                     5.56044  -0.99861  -0.0002 
 6                     5.93977   1.40478  -0.00017 
 1                     4.18584   2.68232   0. 
 6                     6.42656   0.10572  -0.00024 
 1                     5.93689  -2.01646  -0.00024 
 1                     6.62982   2.24299  -0.0002 
 1                     7.49855  -0.06787  -0.00033 
 6                    -3.69786   0.58201  -0.00005 
 6                    -1.92522  -0.9125    0.00011 
 6                    -4.19474  -0.74285  -0.00007 
 6                    -4.55599   1.66357  -0.00006 
 6                    -5.56043  -0.99862  -0.0001 
 6                    -5.93977   1.40478  -0.0001 
 1                    -4.18584   2.68232  -0.00003 
 6                    -6.42656   0.10571  -0.00013 
 1                    -5.93689  -2.01647  -0.0001 
 1                    -6.62982   2.24298  -0.00011 
 1                    -7.49854  -0.06789  -0.00015 
 7                    -2.31039   0.46966   0.00002 
 7                    -3.12818  -1.60576  -0.00005 
 7                     2.31039   0.46966   0.00008 
 7                     3.12818  -1.60576  -0.00003 
 6                     3.2085   -3.03121   0.00001 
 1                     3.7244   -3.40643  -0.89315 
 1                     3.72392  -3.40645   0.89345 
 1                     2.19304  -3.43724  -0.00028 
 6                    -3.20849  -3.03121   0.00004 
 1                    -3.72385  -3.40643   0.89353 
 1                    -3.72446  -3.40646  -0.89307 
 1                    -2.19303  -3.43724  -0.00031 
 27                    0.       -1.26888   0.00012 
 

 GradGradGradGradGradGradGradGradGradGradGradGradGradGradGradGradGradGrad
 Berny optimization.
 Initialization pass.
 Trust Radius=3.00D-01 FncErr=1.00D-07 GrdErr=1.00D-07 EigMax=2.50D+02 EigMin=1.00D-04
 Number of steps in this run=      2 maximum allowed number of steps=      2.
 GradGradGradGradGradGradGradGradGradGradGradGradGradGradGradGradGradGrad

                          Input orientation:                          
 ---------------------------------------------------------------------
 Center     Atomic      Atomic             Coordinates (Angstroms)
 Number     Number       Type             X           Y           Z
 ---------------------------------------------------------------------
      1          6           0        0.000002    0.807628    0.000098
      2          6           0       -1.284033    1.360660    0.000027
      3          6           0       -1.246500    2.758303   -0.000015
      4          6           0        0.000001    3.406554    0.000003
      5          6           0        1.246505    2.758304    0.000031
      6          6           0        1.284036    1.360660    0.000064
      7          1           0       -2.158860    3.342511   -0.000042
      8          1           0        0.000002    4.494550   -0.000007
      9          1           0        2.158866    3.342508    0.000045
     10          6           0        3.697863    0.582009   -0.000034
     11          6           0        1.925231   -0.912498    0.000142
     12          6           0        4.194745   -0.742842   -0.000097
     13          6           0        4.555987    1.663577   -0.000063
     14          6           0        5.560437   -0.998611   -0.000198
     15          6           0        5.939772    1.404782   -0.000172
     16          1           0        4.185842    2.682324    0.000004
     17          6           0        6.426563    0.105717   -0.000244
     18          1           0        5.936894   -2.016464   -0.000238
     19          1           0        6.629817    2.242993   -0.000197
     20          1           0        7.498549   -0.067874   -0.000329
     21          6           0       -3.697860    0.582007   -0.000045
     22          6           0       -1.925223   -0.912501    0.000109
     23          6           0       -4.194740   -0.742850   -0.000073
     24          6           0       -4.555987    1.663567   -0.000058
     25          6           0       -5.560428   -0.998617   -0.000101
     26          6           0       -5.939770    1.404775   -0.000102
     27          1           0       -4.185842    2.682318   -0.000025
     28          6           0       -6.426560    0.105707   -0.000125
     29          1           0       -5.936887   -2.016471   -0.000099
     30          1           0       -6.629819    2.242983   -0.000109
     31          1           0       -7.498544   -0.067886   -0.000154
     32          7           0       -2.310390    0.469657    0.000016
     33          7           0       -3.128177   -1.605763   -0.000046
     34          7           0        2.310394    0.469660    0.000075
     35          7           0        3.128182   -1.605758   -0.000029
     36          6           0        3.208496   -3.031207    0.000009
     37          1           0        3.724401   -3.406427   -0.893153
     38          1           0        3.723922   -3.406445    0.893445
     39          1           0        2.193036   -3.437238   -0.000284
     40          6           0       -3.208488   -3.031213    0.000045
     41          1           0       -3.723848   -3.406430    0.893529
     42          1           0       -3.724459   -3.406460   -0.893068
     43          1           0       -2.193028   -3.437242   -0.000315
     44         27           0        0.000004   -1.268879    0.000117
 ---------------------------------------------------------------------
                    Distance matrix (angstroms):
                    1          2          3          4          5
     1  C    0.000000
     2  C    1.398067   0.000000
     3  C    2.314929   1.398147   0.000000
     4  C    2.598926   2.415456   1.404989   0.000000
     5  C    2.314931   2.890854   2.493005   1.404991   0.000000
     6  C    1.398065   2.568069   2.890850   2.415456   1.398148
     7  H    3.329612   2.166346   1.083375   2.159811   3.455114
     8  H    3.686922   3.386741   2.137363   1.087996   2.137364
     9  H    3.329611   3.972566   3.455114   2.159815   1.083373
    10  C    3.704738   5.042380   5.402127   4.653197   3.278020
    11  C    2.581732   3.932763   4.851253   4.728712   3.733022
    12  C    4.472117   5.868708   6.470329   5.900285   4.577132
    13  C    4.635693   5.847871   5.904852   4.878009   3.485842
    14  C    5.846447   7.239678   7.774882   7.093936   5.720526
    15  C    5.969712   7.223941   7.312628   6.268012   4.884545
    16  H    4.586474   5.627285   5.432873   4.248031   2.940318
    17  C    6.464779   7.812053   8.118627   7.224695   5.819726
    18  H    6.574359   7.971622   8.625517   8.040885   6.693142
    19  H    6.783415   7.962885   7.893156   6.731146   5.407919
    20  H    7.549485   8.898004   9.190384   8.264374   6.861147
    21  C    3.704739   2.536309   3.278023   4.653198   5.402131
    22  C    2.581731   2.361860   3.733023   4.728713   4.851254
    23  C    4.472118   3.591234   4.577138   5.900289   6.470334
    24  C    4.635694   3.285944   3.485850   4.878015   5.904859
    25  C    5.846444   4.884029   5.720527   7.093935   7.774883
    26  C    5.969713   4.655945   4.884549   6.268014   7.312632
    27  H    4.586475   3.188616   2.940325   4.248035   5.432879
    28  C    6.464781   5.293438   5.819733   7.224700   8.118633
    29  H    6.574358   5.749266   6.693146   8.040886   8.625520
    30  H    6.783418   5.418110   5.407928   6.731152   7.893164
    31  H    7.549484   6.376589   6.861152   8.264376   9.190388
    32  N    2.334981   1.359151   2.523838   3.736746   4.229587
    33  N    3.950944   3.492926   4.752450   5.908369   6.179234
    34  N    2.334980   3.703213   4.229583   3.736745   2.523836
    35  N    3.950943   5.316699   6.179229   5.908366   4.752446
    36  C    5.003108   6.282620   7.305163   7.192997   6.112924
    37  H    5.694498   6.971894   7.969407   7.815727   6.703853
    38  H    5.694213   6.971592   7.969158   7.815548   6.703724
    39  H    4.777896   5.925356   7.086264   7.186578   6.267429
    40  C    5.003110   4.795004   6.112928   7.193000   7.305167
    41  H    5.694169   5.429197   6.703700   7.815509   7.969108
    42  H    5.694549   5.429431   6.703889   7.815775   7.969468
    43  H    4.777898   4.883250   6.267431   7.186579   7.086267
    44  Co   2.076507   2.926299   4.215680   4.675433   4.215681
                    6          7          8          9         10
     6  C    0.000000
     7  H    3.972564   0.000000
     8  H    3.386741   2.447015   0.000000
     9  H    2.166346   4.317726   2.447018   0.000000
    10  C    2.536309   6.474688   5.383508   3.160518   0.000000
    11  C    2.361859   5.897873   5.739571   4.261416   2.318572
    12  C    3.591232   7.553701   6.710153   4.564525   1.414963
    13  C    3.285944   6.921560   5.363899   2.926602   1.380640
    14  C    4.884032   8.856234   7.816218   5.515071   2.442855
    15  C    4.655946   8.327223   6.695337   4.248533   2.388119
    16  H    3.188617   6.378957   4.561296   2.131777   2.156258
    17  C    5.293436   9.175311   7.782194   5.356310   2.769956
    18  H    5.749266   9.708751   8.811356   6.556835   3.430061
    19  H    5.418108   8.857188   7.001711   4.604165   3.369751
    20  H    6.376589  10.241889   8.777467   6.335844   3.855848
    21  C    5.042379   3.160523   5.383510   6.474690   7.395724
    22  C    3.932759   4.261421   5.739572   5.897871   5.818304
    23  C    5.868708   4.564535   6.710158   7.553705   8.003026
    24  C    5.847872   2.926614   5.363907   6.921567   8.324410
    25  C    7.239673   5.515075   7.816218   8.856234   9.392249
    26  C    7.223940   4.248541   6.695342   8.327227   9.672689
    27  H    5.627285   2.131786   4.561302   6.378963   8.158683
    28  C    7.812054   5.356320   7.782201   9.175316  10.135621
    29  H    7.971620   6.556842   8.811359   9.708752   9.979003
    30  H    7.962888   4.604176   7.001720   8.857197  10.460394
    31  H    8.898002   6.335853   8.777472  10.241892  11.215253
    32  N    3.703212   2.876847   4.640870   5.312958   6.009303
    33  N    5.316698   5.042320   6.855606   7.241424   7.168066
    34  N    1.359151   5.312956   4.640868   2.876842   1.392011
    35  N    3.492923   7.241422   6.855602   5.042312   2.260721
    36  C    4.795002   8.332634   8.181165   6.459564   3.646205
    37  H    5.429395   8.997698   8.780336   6.985473   4.087295
    38  H    5.429223   8.997436   8.780180   6.985409   4.087389
    39  H    4.883247   8.056302   8.229379   6.779833   4.291719
    40  C    6.282619   6.459572   8.181168   8.332635   7.794425
    41  H    6.971536   6.985403   8.780145   8.997377   8.472773
    42  H    6.971953   6.985499   8.780383   8.997763   8.473267
    43  H    5.925355   6.779839   8.229381   8.056302   7.131408
    44  Co   2.926296   5.091720   5.763429   5.091717   4.135208
                   11         12         13         14         15
    11  C    0.000000
    12  C    2.275846   0.000000
    13  C    3.681988   2.433382   0.000000
    14  C    3.636226   1.389436   2.845376   0.000000
    15  C    4.635335   2.767203   1.407777   2.433145   0.000000
    16  H    4.246540   3.425177   1.083906   3.929223   2.169881
    17  C    4.615057   2.387691   2.434334   1.403466   1.387276
    18  H    4.160791   2.158054   3.930599   1.085239   3.421247
    19  H    5.664826   3.852893   2.153252   3.413440   1.085707
    20  H    5.636955   3.372048   3.414176   2.150012   2.144412
    21  C    5.818308   8.003027   8.324409   9.392253   9.672690
    22  C    3.850454   6.122319   6.974400   7.486155   8.199265
    23  C    6.122322   8.389485   9.075578   9.758529  10.359569
    24  C    6.974403   9.075577   9.111974  10.460842  10.498949
    25  C    7.486155   9.758526  10.460838  11.120865  11.748657
    26  C    8.199268  10.359568  10.498947  11.748660  11.879542
    27  H    7.089987   9.053505   8.800989  10.418214  10.205889
    28  C    8.413629  10.655147  11.092489  12.037758  12.434379
    29  H    7.939248  10.211370  11.119494  11.542291  12.359612
    30  H    9.118439  11.228817  11.200802  12.613892  12.597508
    31  H    9.461549  11.712752  12.178246  13.092106  13.518768
    32  N    4.455428   6.617169   6.969403   8.006605   8.302990
    33  N    5.100740   7.373589   8.350746   8.709801   9.554637
    34  N    1.434820   2.240745   2.543252   3.566315   3.747912
    35  N    1.388417   1.371925   3.567517   2.506888   4.119270
    36  C    2.477034   2.491847   4.884335   3.108549   5.209402
    37  H    3.202291   2.848413   5.214795   3.156893   5.371500
    38  H    3.202039   2.848662   5.214961   3.157380   5.371820
    39  H    2.538904   3.356577   5.621553   4.157678   6.122352
    40  C    5.553740   7.748838   9.073484   9.001417  10.167041
    41  H    6.239385   8.402224   9.749827   9.632979  10.831990
    42  H    6.239925   8.402740   9.750308   9.633496  10.832482
    43  H    4.830569   6.932780   8.459761   8.127924   9.465075
    44  Co   1.957935   4.227596   5.418144   5.566998   6.513779
                   16         17         18         19         20
    16  H    0.000000
    17  C    3.414635   0.000000
    18  H    5.014458   2.177941   0.000000
    19  H    2.483148   2.146918   4.315451   0.000000
    20  H    4.305533   1.085950   2.497152   2.468765   0.000000
    21  C    8.158682  10.135620   9.979005  10.460392  11.215255
    22  C    7.089984   8.413626   7.939246   9.118434   9.461547
    23  C    9.053506  10.655146  10.211371  11.228815  11.712754
    24  C    8.800990  11.092488  11.119496  11.200801  12.178248
    25  C   10.418210  12.037754  11.542289  12.613886  13.092104
    26  C   10.205888  12.434377  12.359613  12.597505  13.518769
    27  H    8.371684  10.920715  11.160123  10.824578  12.003689
    28  C   10.920716  12.853123  12.544266  13.230154  13.926191
    29  H   11.160121  12.544264  11.873781  13.268951  13.576007
    30  H   10.824580  13.230155  13.268955  13.259636  14.316104
    31  H   12.003688  13.926189  13.576007  14.316101  14.997093
    32  N    6.862719   8.744530   8.613855   9.114385   9.823656
    33  N    8.478358   9.706813   9.074370  10.489584  10.737430
    34  N    2.900550   4.132228   4.396853   4.669275   5.215928
    35  N    4.416592   3.715974   2.838581   5.203300   4.633054
    36  C    5.796520   4.494024   2.910990   6.286702   5.214010
    37  H    6.171186   4.520412   2.761235   6.415197   5.117349
    38  H    6.171282   4.520867   2.761877   6.415526   5.117881
    39  H    6.435861   5.520442   4.004382   7.207638   6.284989
    40  C    9.344550  10.132844   9.201507  11.162862  11.109546
    41  H   10.021701  10.777979   9.801059  11.828486  11.742535
    42  H   10.022161  10.778486   9.801581  11.828971  11.743043
    43  H    8.839631   9.319330   8.253136  10.493220  10.260571
    44  Co   5.756148   6.571924   5.983774   7.502511   7.594116
                   21         22         23         24         25
    21  C    0.000000
    22  C    2.318576   0.000000
    23  C    1.414968   2.275849   0.000000
    24  C    1.380635   3.681989   2.433381   0.000000
    25  C    2.442853   3.636225   1.389432   2.845370   0.000000
    26  C    2.388118   4.635337   2.767205   1.407775   2.433145
    27  H    2.156254   4.246542   3.425179   1.083909   3.929220
    28  C    2.769957   4.615061   2.387692   2.434332   1.403466
    29  H    3.430062   4.160793   2.158052   3.930594   1.085241
    30  H    3.369751   5.664830   3.852896   2.153254   3.413439
    31  H    3.855847   5.636957   3.372046   3.414173   2.150012
    32  N    1.392012   1.434822   2.240747   2.543251   3.566312
    33  N    2.260725   1.388420   1.371924   3.567515   2.506885
    34  N    6.009304   4.455425   6.617170   6.969404   8.006602
    35  N    7.168066   5.100736   7.373588   8.350745   8.709798
    36  C    7.794425   5.553736   7.748837   9.073483   9.001414
    37  H    8.473206   6.239859   8.402680   9.750245   9.633439
    38  H    8.472834   6.239443   8.402280   9.749885   9.633027
    39  H    7.131409   4.830565   6.932778   8.459759   8.127920
    40  C    3.646209   2.477036   2.491846   4.884333   3.108548
    41  H    4.087392   3.202020   2.848670   5.214961   3.157399
    42  H    4.087305   3.202319   2.848407   5.214794   3.156878
    43  H    4.291722   2.538905   3.356575   5.621550   4.157676
    44  Co   4.135212   1.957933   4.227597   5.418144   5.566996
                   26         27         28         29         30
    26  C    0.000000
    27  H    2.169880   0.000000
    28  C    1.387279   3.414636   0.000000
    29  H    3.421247   5.014456   2.177939   0.000000
    30  H    1.085707   2.483151   2.146919   4.315449   0.000000
    31  H    2.144413   4.305533   1.085948   2.497150   2.468765
    32  N    3.747912   2.900549   4.132229   4.396853   4.669277
    33  N    4.119271   4.416593   3.715974   2.838579   5.203301
    34  N    8.302990   6.862720   8.744531   8.613854   9.114388
    35  N    9.554636   8.478358   9.706813   9.074368  10.489585
    36  C   10.167040   9.344549  10.132844   9.201506  11.162863
    37  H   10.832424  10.022097  10.778432   9.801531  11.828915
    38  H   10.832045  10.021761  10.778032   9.801105  11.828543
    39  H    9.465074   8.839630   9.319330   8.253134  10.493221
    40  C    5.209404   5.796520   4.494024   2.910989   6.286704
    41  H    5.371832   6.171282   4.520882   2.761901   6.415537
    42  H    5.371496   6.171192   4.520400   2.761213   6.415192
    43  H    6.122353   6.435862   5.520442   4.004381   7.207639
    44  Co   6.513780   5.756150   6.571926   5.983775   7.502514
                   31         32         33         34         35
    31  H    0.000000
    32  N    5.215927   0.000000
    33  N    4.633052   2.230728   0.000000
    34  N    9.823656   4.620783   5.821119   0.000000
    35  N   10.737428   5.821118   6.256359   2.230726   0.000000
    36  C   11.109544   6.535606   6.495022   3.614230   1.427710
    37  H   11.742989   7.227758   7.141278   4.221531   2.096558
    38  H   11.742582   7.227399   7.140871   4.221417   2.096587
    39  H   10.260568   5.961936   5.627576   3.908660   2.056409
    40  C    5.214008   3.614232   1.427710   6.535607   6.495022
    41  H    5.117898   4.221407   2.096593   7.227337   7.140811
    42  H    5.117332   4.221549   2.096556   7.227825   7.141340
    43  H    6.284986   3.908662   2.056409   5.961937   5.627577
    44  Co   7.594116   2.891440   3.146268   2.891439   3.146266
                   36         37         38         39         40
    36  C    0.000000
    37  H    1.097582   0.000000
    38  H    1.097586   1.786598   0.000000
    39  H    1.093626   1.772919   1.772938   0.000000
    40  C    6.416984   7.000253   6.999805   5.416763   0.000000
    41  H    6.999754   7.659546   7.447769   5.984093   1.097587
    42  H    7.000304   7.448860   7.659635   5.984544   1.097582
    43  H    5.416763   5.984487   5.984150   4.386065   1.093626
    44  Co   3.660631   4.386135   4.385749   3.084019   3.660634
                   41         42         43         44
    41  H    0.000000
    42  H    1.786597   0.000000
    43  H    1.772939   1.772917   0.000000
    44  Co   4.385701   4.386189   3.084022   0.000000
 Symmetry turned off by external request.
 Stoichiometry    C22H17CoN4
 Framework group  C1[X(C22H17CoN4)]
 Deg. of freedom   126
 Full point group                 C1      NOp   1
 Rotational constants (GHZ):           0.4608369           0.1000435           0.0822850
 General basis read from cards:  (5D, 7F)
 ======================================================================================================
                                       Pseudopotential Parameters
 ======================================================================================================
  Center     Atomic      Valence      Angular      Power
  Number     Number     Electrons     Momentum     of R      Exponent        Coefficient   SO-Coeffient
 ======================================================================================================
    1          6
                                   No pseudopotential on this center.
    2          6
                                   No pseudopotential on this center.
    3          6
                                   No pseudopotential on this center.
    4          6
                                   No pseudopotential on this center.
    5          6
                                   No pseudopotential on this center.
    6          6
                                   No pseudopotential on this center.
    7          1
                                   No pseudopotential on this center.
    8          1
                                   No pseudopotential on this center.
    9          1
                                   No pseudopotential on this center.
   10          6
                                   No pseudopotential on this center.
   11          6
                                   No pseudopotential on this center.
   12          6
                                   No pseudopotential on this center.
   13          6
                                   No pseudopotential on this center.
   14          6
                                   No pseudopotential on this center.
   15          6
                                   No pseudopotential on this center.
   16          1
                                   No pseudopotential on this center.
   17          6
                                   No pseudopotential on this center.
   18          1
                                   No pseudopotential on this center.
   19          1
                                   No pseudopotential on this center.
   20          1
                                   No pseudopotential on this center.
   21          6
                                   No pseudopotential on this center.
   22          6
                                   No pseudopotential on this center.
   23          6
                                   No pseudopotential on this center.
   24          6
                                   No pseudopotential on this center.
   25          6
                                   No pseudopotential on this center.
   26          6
                                   No pseudopotential on this center.
   27          1
                                   No pseudopotential on this center.
   28          6
                                   No pseudopotential on this center.
   29          1
                                   No pseudopotential on this center.
   30          1
                                   No pseudopotential on this center.
   31          1
                                   No pseudopotential on this center.
   32          7
                                   No pseudopotential on this center.
   33          7
                                   No pseudopotential on this center.
   34          7
                                   No pseudopotential on this center.
   35          7
                                   No pseudopotential on this center.
   36          6
                                   No pseudopotential on this center.
   37          1
                                   No pseudopotential on this center.
   38          1
                                   No pseudopotential on this center.
   39          1
                                   No pseudopotential on this center.
   40          6
                                   No pseudopotential on this center.
   41          1
                                   No pseudopotential on this center.
   42          1
                                   No pseudopotential on this center.
   43          1
                                   No pseudopotential on this center.
   44         27           17
                                      F and up 
                                                     2        1.0000000        0.00000000    0.00000000
                                      S - F
                                                     2       23.6600000      283.96056600    0.00000000
                                                     2       10.6100000       47.15684600    0.00000000
                                      P - F
                                                     2       25.0400000      182.21223600    0.00000000
                                                     2       10.4400000       35.23335200    0.00000000
                                      D - F
                                                     2       29.5400000      -26.47533300    0.00000000
                                                     2       10.1800000       -1.82578700    0.00000000
 ======================================================================================================
   441 basis functions,   871 primitive gaussians,   473 cartesian basis functions
    97 alpha electrons       97 beta electrons
       nuclear repulsion energy      2480.8301363494 Hartrees.
 NAtoms=   44 NActive=   44 NUniq=   44 SFac= 1.00D+00 NAtFMM=   60 NAOKFM=F Big=F
 Integral buffers will be    131072 words long.
 Raffenetti 2 integral format.
 Two-electron integral symmetry is turned off.
 Nuclear repulsion after empirical dispersion term =     2480.7710915562 Hartrees.
 One-electron integrals computed using PRISM.
   1 Symmetry operations used in ECPInt.
 ECPInt:  NShTT=   11781 NPrTT=   71406 LenC2=    9512 LenP2D=   31994.
 LDataN:  DoStor=T MaxTD1= 6 Len=  172
 NBasis=   441 RedAO= T EigKep=  3.23D-04  NBF=   441
 NBsUse=   441 1.00D-06 EigRej= -1.00D+00 NBFU=   441
 Initial guess from the checkpoint file:  "a.chk"
 B after Tr=    -0.000000   -0.001462    0.000003
         Rot=    1.000000    0.000001    0.000000   -0.000000 Ang=   0.00 deg.
 Initial guess <Sx>= 0.0000 <Sy>= 0.0000 <Sz>= 0.0000 <S**2>=-0.0000 S=-0.0000
 Requested convergence on RMS density matrix=1.00D-08 within  64 cycles.
 Requested convergence on MAX density matrix=1.00D-06.
 Requested convergence on             energy=1.00D-06.
 No special actions if energy rises.
 SCF Done:  E(UPBE1PBE) =  -1212.11241540     A.U. after   14 cycles
            NFock= 14  Conv=0.46D-08     -V/T= 2.0553
 <Sx>= 0.0000 <Sy>= 0.0000 <Sz>= 0.0000 <S**2>=-0.0000 S=-0.0000
 <L.S>=  0.00000000000    
 Annihilation of the first spin contaminant:
 S**2 before annihilation    -0.0000,   after     0.0000
 QCSCF skips out because SCF is already converged.

 **********************************************************************

            Population analysis using the SCF Density.

 **********************************************************************

 Alpha  occ. eigenvalues --  -14.45810 -14.45810 -14.45303 -14.45303 -10.28427
 Alpha  occ. eigenvalues --  -10.28427 -10.27695 -10.27695 -10.27486 -10.27486
 Alpha  occ. eigenvalues --  -10.27288 -10.27288 -10.25367 -10.25366 -10.24180
 Alpha  occ. eigenvalues --  -10.24180 -10.23970 -10.23970 -10.23506 -10.23506
 Alpha  occ. eigenvalues --  -10.23451 -10.23451 -10.21585 -10.21582 -10.21241
 Alpha  occ. eigenvalues --  -10.19215  -3.83086  -2.34832  -2.34797  -2.30976
 Alpha  occ. eigenvalues --   -1.05860  -1.05797  -0.97036  -0.96708  -0.88187
 Alpha  occ. eigenvalues --   -0.87934  -0.84994  -0.80311  -0.78784  -0.77918
 Alpha  occ. eigenvalues --   -0.77811  -0.75568  -0.75000  -0.72982  -0.71825
 Alpha  occ. eigenvalues --   -0.66533  -0.65180  -0.64548  -0.64107  -0.62593
 Alpha  occ. eigenvalues --   -0.61404  -0.58929  -0.57219  -0.56643  -0.54116
 Alpha  occ. eigenvalues --   -0.53221  -0.52027  -0.49673  -0.49615  -0.49057
 Alpha  occ. eigenvalues --   -0.48289  -0.47868  -0.47482  -0.46621  -0.46147
 Alpha  occ. eigenvalues --   -0.45784  -0.45358  -0.45014  -0.44562  -0.44033
 Alpha  occ. eigenvalues --   -0.42426  -0.41906  -0.41114  -0.38536  -0.38407
 Alpha  occ. eigenvalues --   -0.38338  -0.37523  -0.36851  -0.36801  -0.36713
 Alpha  occ. eigenvalues --   -0.35009  -0.34666  -0.34443  -0.33873  -0.31631
 Alpha  occ. eigenvalues --   -0.29045  -0.26676  -0.25923  -0.24735  -0.24429
 Alpha  occ. eigenvalues --   -0.21542  -0.21337  -0.20465  -0.20118  -0.16469
 Alpha  occ. eigenvalues --   -0.15288  -0.14818
 Alpha virt. eigenvalues --   -0.04489  -0.02554  -0.00727  -0.00125   0.00859
 Alpha virt. eigenvalues --    0.01309   0.01993   0.03228   0.05288   0.05933
 Alpha virt. eigenvalues --    0.06108   0.07279   0.08830   0.09269   0.10079
 Alpha virt. eigenvalues --    0.10350   0.12601   0.13138   0.14159   0.14239
 Alpha virt. eigenvalues --    0.15276   0.15538   0.15886   0.16002   0.16507
 Alpha virt. eigenvalues --    0.16796   0.16963   0.17636   0.17866   0.18263
 Alpha virt. eigenvalues --    0.19150   0.19208   0.19718   0.20330   0.22040
 Alpha virt. eigenvalues --    0.22161   0.22525   0.22667   0.22842   0.23772
 Alpha virt. eigenvalues --    0.25818   0.25846   0.26442   0.27650   0.27689
 Alpha virt. eigenvalues --    0.28283   0.29270   0.29490   0.30443   0.30902
 Alpha virt. eigenvalues --    0.31615   0.33209   0.33616   0.34457   0.34539
 Alpha virt. eigenvalues --    0.36262   0.37745   0.38038   0.39517   0.39591
 Alpha virt. eigenvalues --    0.41575   0.43112   0.44594   0.45017   0.46149
 Alpha virt. eigenvalues --    0.47323   0.47714   0.50203   0.51214   0.51798
 Alpha virt. eigenvalues --    0.52300   0.53541   0.53750   0.55921   0.55993
 Alpha virt. eigenvalues --    0.56830   0.56878   0.56969   0.58161   0.58345
 Alpha virt. eigenvalues --    0.58566   0.59031   0.59252   0.60109   0.61443
 Alpha virt. eigenvalues --    0.61531   0.61880   0.63111   0.63123   0.63184
 Alpha virt. eigenvalues --    0.63330   0.63332   0.63389   0.63888   0.64501
 Alpha virt. eigenvalues --    0.65256   0.65815   0.66331   0.66731   0.67052
 Alpha virt. eigenvalues --    0.67608   0.68121   0.68403   0.69329   0.70895
 Alpha virt. eigenvalues --    0.72188   0.72585   0.73924   0.75768   0.76156
 Alpha virt. eigenvalues --    0.76378   0.76980   0.78237   0.79581   0.80072
 Alpha virt. eigenvalues --    0.80991   0.82007   0.82633   0.83137   0.83764
 Alpha virt. eigenvalues --    0.84213   0.84348   0.85009   0.86577   0.86727
 Alpha virt. eigenvalues --    0.86944   0.87250   0.87501   0.89733   0.90160
 Alpha virt. eigenvalues --    0.90469   0.91379   0.91685   0.91943   0.92826
 Alpha virt. eigenvalues --    0.93348   0.93592   0.95318   0.95436   0.95873
 Alpha virt. eigenvalues --    0.95899   0.97174   0.97817   0.97876   0.98223
 Alpha virt. eigenvalues --    0.98345   1.00049   1.00179   1.01568   1.02167
 Alpha virt. eigenvalues --    1.02842   1.03099   1.03883   1.06300   1.07382
 Alpha virt. eigenvalues --    1.08980   1.09608   1.10967   1.11280   1.13747
 Alpha virt. eigenvalues --    1.14860   1.15922   1.16017   1.16629   1.18363
 Alpha virt. eigenvalues --    1.18390   1.19049   1.20081   1.23648   1.24058
 Alpha virt. eigenvalues --    1.24448   1.25025   1.26920   1.27298   1.27450
 Alpha virt. eigenvalues --    1.29114   1.29304   1.30000   1.32540   1.33317
 Alpha virt. eigenvalues --    1.33771   1.36184   1.36334   1.37254   1.38889
 Alpha virt. eigenvalues --    1.40196   1.41649   1.42691   1.42694   1.43363
 Alpha virt. eigenvalues --    1.44948   1.45293   1.45371   1.46129   1.47731
 Alpha virt. eigenvalues --    1.47908   1.49225   1.49917   1.49928   1.51020
 Alpha virt. eigenvalues --    1.51149   1.51298   1.53153   1.54399   1.56960
 Alpha virt. eigenvalues --    1.57064   1.59011   1.62236   1.65308   1.65643
 Alpha virt. eigenvalues --    1.65760   1.70328   1.72421   1.72705   1.76818
 Alpha virt. eigenvalues --    1.77294   1.78480   1.79717   1.79840   1.81980
 Alpha virt. eigenvalues --    1.82683   1.85493   1.86713   1.86740   1.87387
 Alpha virt. eigenvalues --    1.88174   1.88608   1.89807   1.91070   1.91637
 Alpha virt. eigenvalues --    1.93096   1.94930   1.95002   1.96370   1.96852
 Alpha virt. eigenvalues --    1.97852   1.98180   1.98559   1.98811   1.98913
 Alpha virt. eigenvalues --    1.99544   2.00131   2.01233   2.02367   2.03531
 Alpha virt. eigenvalues --    2.06094   2.06508   2.07187   2.09831   2.10132
 Alpha virt. eigenvalues --    2.12244   2.13015   2.14233   2.14963   2.15098
 Alpha virt. eigenvalues --    2.16133   2.16561   2.16577   2.18952   2.19666
 Alpha virt. eigenvalues --    2.20401   2.21398   2.21484   2.22288   2.23574
 Alpha virt. eigenvalues --    2.24727   2.24873   2.26016   2.27079   2.27562
 Alpha virt. eigenvalues --    2.27747   2.28000   2.28131   2.28375   2.28670
 Alpha virt. eigenvalues --    2.32776   2.34463   2.38862   2.39448   2.40426
 Alpha virt. eigenvalues --    2.40510   2.44025   2.44341   2.45547   2.46597
 Alpha virt. eigenvalues --    2.51364   2.51409   2.52122   2.57138   2.58488
 Alpha virt. eigenvalues --    2.58862   2.59540   2.59814   2.60457   2.62287
 Alpha virt. eigenvalues --    2.63817   2.64930   2.66438   2.67651   2.69180
 Alpha virt. eigenvalues --    2.69532   2.69573   2.72025   2.73243   2.74714
 Alpha virt. eigenvalues --    2.75106   2.75136   2.77227   2.78490   2.79166
 Alpha virt. eigenvalues --    2.79949   2.83126   2.85062   2.88112   2.88398
 Alpha virt. eigenvalues --    2.93473   2.93712   2.97330   2.98541   2.99906
 Alpha virt. eigenvalues --    3.00532   3.06039   3.06703   3.14714   3.18579
 Alpha virt. eigenvalues --    3.19289   3.29197   3.39567   3.46432   3.46768
 Alpha virt. eigenvalues --    3.52082   3.52335   3.60644   5.66753   5.67092
 Alpha virt. eigenvalues --    5.67406   5.68270   5.68836   5.69739   5.71766
 Alpha virt. eigenvalues --   45.82194  45.96144  46.01696  63.11579
  Beta  occ. eigenvalues --  -14.45810 -14.45810 -14.45303 -14.45303 -10.28427
  Beta  occ. eigenvalues --  -10.28427 -10.27695 -10.27695 -10.27486 -10.27486
  Beta  occ. eigenvalues --  -10.27288 -10.27288 -10.25367 -10.25366 -10.24180
  Beta  occ. eigenvalues --  -10.24180 -10.23970 -10.23970 -10.23506 -10.23506
  Beta  occ. eigenvalues --  -10.23451 -10.23451 -10.21585 -10.21582 -10.21241
  Beta  occ. eigenvalues --  -10.19215  -3.83086  -2.34832  -2.34797  -2.30976
  Beta  occ. eigenvalues --   -1.05860  -1.05797  -0.97036  -0.96708  -0.88187
  Beta  occ. eigenvalues --   -0.87934  -0.84994  -0.80311  -0.78784  -0.77918
  Beta  occ. eigenvalues --   -0.77811  -0.75568  -0.75000  -0.72982  -0.71825
  Beta  occ. eigenvalues --   -0.66533  -0.65180  -0.64548  -0.64107  -0.62593
  Beta  occ. eigenvalues --   -0.61404  -0.58929  -0.57219  -0.56643  -0.54116
  Beta  occ. eigenvalues --   -0.53221  -0.52027  -0.49673  -0.49615  -0.49057
  Beta  occ. eigenvalues --   -0.48289  -0.47868  -0.47482  -0.46621  -0.46147
  Beta  occ. eigenvalues --   -0.45784  -0.45358  -0.45014  -0.44562  -0.44033
  Beta  occ. eigenvalues --   -0.42426  -0.41906  -0.41114  -0.38536  -0.38407
  Beta  occ. eigenvalues --   -0.38338  -0.37523  -0.36851  -0.36801  -0.36713
  Beta  occ. eigenvalues --   -0.35009  -0.34666  -0.34443  -0.33873  -0.31631
  Beta  occ. eigenvalues --   -0.29045  -0.26676  -0.25923  -0.24735  -0.24429
  Beta  occ. eigenvalues --   -0.21542  -0.21337  -0.20465  -0.20118  -0.16469
  Beta  occ. eigenvalues --   -0.15288  -0.14818
  Beta virt. eigenvalues --   -0.04489  -0.02554  -0.00727  -0.00125   0.00859
  Beta virt. eigenvalues --    0.01309   0.01993   0.03228   0.05288   0.05933
  Beta virt. eigenvalues --    0.06108   0.07279   0.08830   0.09269   0.10079
  Beta virt. eigenvalues --    0.10350   0.12601   0.13138   0.14159   0.14239
  Beta virt. eigenvalues --    0.15276   0.15538   0.15886   0.16002   0.16507
  Beta virt. eigenvalues --    0.16796   0.16963   0.17636   0.17866   0.18263
  Beta virt. eigenvalues --    0.19150   0.19208   0.19718   0.20330   0.22040
  Beta virt. eigenvalues --    0.22161   0.22525   0.22667   0.22842   0.23772
  Beta virt. eigenvalues --    0.25818   0.25846   0.26442   0.27650   0.27689
  Beta virt. eigenvalues --    0.28283   0.29270   0.29490   0.30443   0.30902
  Beta virt. eigenvalues --    0.31615   0.33209   0.33616   0.34457   0.34539
  Beta virt. eigenvalues --    0.36262   0.37745   0.38038   0.39517   0.39591
  Beta virt. eigenvalues --    0.41575   0.43112   0.44594   0.45017   0.46149
  Beta virt. eigenvalues --    0.47323   0.47714   0.50203   0.51214   0.51798
  Beta virt. eigenvalues --    0.52300   0.53541   0.53750   0.55921   0.55993
  Beta virt. eigenvalues --    0.56830   0.56878   0.56969   0.58161   0.58345
  Beta virt. eigenvalues --    0.58566   0.59031   0.59252   0.60109   0.61443
  Beta virt. eigenvalues --    0.61531   0.61880   0.63111   0.63123   0.63184
  Beta virt. eigenvalues --    0.63330   0.63332   0.63389   0.63888   0.64501
  Beta virt. eigenvalues --    0.65256   0.65815   0.66331   0.66731   0.67052
  Beta virt. eigenvalues --    0.67608   0.68121   0.68403   0.69329   0.70895
  Beta virt. eigenvalues --    0.72188   0.72585   0.73924   0.75768   0.76156
  Beta virt. eigenvalues --    0.76378   0.76980   0.78237   0.79581   0.80072
  Beta virt. eigenvalues --    0.80991   0.82007   0.82633   0.83137   0.83764
  Beta virt. eigenvalues --    0.84213   0.84348   0.85009   0.86577   0.86727
  Beta virt. eigenvalues --    0.86944   0.87250   0.87501   0.89733   0.90160
  Beta virt. eigenvalues --    0.90469   0.91379   0.91685   0.91943   0.92826
  Beta virt. eigenvalues --    0.93348   0.93592   0.95318   0.95436   0.95873
  Beta virt. eigenvalues --    0.95899   0.97174   0.97817   0.97876   0.98223
  Beta virt. eigenvalues --    0.98345   1.00049   1.00179   1.01568   1.02167
  Beta virt. eigenvalues --    1.02842   1.03099   1.03883   1.06300   1.07382
  Beta virt. eigenvalues --    1.08980   1.09608   1.10967   1.11280   1.13747
  Beta virt. eigenvalues --    1.14860   1.15922   1.16017   1.16629   1.18363
  Beta virt. eigenvalues --    1.18390   1.19049   1.20081   1.23648   1.24058
  Beta virt. eigenvalues --    1.24448   1.25025   1.26920   1.27298   1.27450
  Beta virt. eigenvalues --    1.29114   1.29304   1.30000   1.32540   1.33317
  Beta virt. eigenvalues --    1.33771   1.36184   1.36334   1.37254   1.38889
  Beta virt. eigenvalues --    1.40196   1.41649   1.42691   1.42694   1.43363
  Beta virt. eigenvalues --    1.44948   1.45293   1.45371   1.46129   1.47731
  Beta virt. eigenvalues --    1.47908   1.49225   1.49917   1.49928   1.51020
  Beta virt. eigenvalues --    1.51149   1.51298   1.53153   1.54399   1.56960
  Beta virt. eigenvalues --    1.57064   1.59011   1.62236   1.65308   1.65643
  Beta virt. eigenvalues --    1.65760   1.70328   1.72421   1.72705   1.76818
  Beta virt. eigenvalues --    1.77294   1.78480   1.79717   1.79840   1.81980
  Beta virt. eigenvalues --    1.82683   1.85493   1.86713   1.86740   1.87387
  Beta virt. eigenvalues --    1.88174   1.88608   1.89807   1.91070   1.91637
  Beta virt. eigenvalues --    1.93096   1.94930   1.95002   1.96370   1.96852
  Beta virt. eigenvalues --    1.97852   1.98180   1.98559   1.98811   1.98913
  Beta virt. eigenvalues --    1.99544   2.00131   2.01233   2.02367   2.03531
  Beta virt. eigenvalues --    2.06094   2.06508   2.07187   2.09831   2.10132
  Beta virt. eigenvalues --    2.12244   2.13015   2.14233   2.14963   2.15098
  Beta virt. eigenvalues --    2.16133   2.16561   2.16577   2.18952   2.19666
  Beta virt. eigenvalues --    2.20401   2.21398   2.21484   2.22288   2.23574
  Beta virt. eigenvalues --    2.24727   2.24873   2.26016   2.27079   2.27562
  Beta virt. eigenvalues --    2.27747   2.28000   2.28131   2.28375   2.28670
  Beta virt. eigenvalues --    2.32776   2.34463   2.38862   2.39448   2.40426
  Beta virt. eigenvalues --    2.40510   2.44025   2.44341   2.45547   2.46597
  Beta virt. eigenvalues --    2.51364   2.51409   2.52122   2.57138   2.58488
  Beta virt. eigenvalues --    2.58862   2.59540   2.59814   2.60457   2.62287
  Beta virt. eigenvalues --    2.63817   2.64930   2.66438   2.67651   2.69180
  Beta virt. eigenvalues --    2.69532   2.69573   2.72025   2.73243   2.74714
  Beta virt. eigenvalues --    2.75106   2.75136   2.77227   2.78490   2.79166
  Beta virt. eigenvalues --    2.79949   2.83126   2.85062   2.88112   2.88398
  Beta virt. eigenvalues --    2.93473   2.93712   2.97330   2.98541   2.99906
  Beta virt. eigenvalues --    3.00532   3.06039   3.06703   3.14714   3.18579
  Beta virt. eigenvalues --    3.19289   3.29197   3.39567   3.46432   3.46768
  Beta virt. eigenvalues --    3.52082   3.52335   3.60644   5.66753   5.67092
  Beta virt. eigenvalues --    5.67407   5.68270   5.68836   5.69739   5.71766
  Beta virt. eigenvalues --   45.82194  45.96144  46.01696  63.11579
          Condensed to atoms (all electrons):
               1          2          3          4          5          6
     1  C    5.092648   0.526098  -0.060569  -0.058950  -0.060569   0.526098
     2  C    0.526098   4.620025   0.519124  -0.018816  -0.040481  -0.018899
     3  C   -0.060569   0.519124   5.052611   0.536542  -0.031348  -0.040481
     4  C   -0.058950  -0.018816   0.536542   4.909518   0.536541  -0.018816
     5  C   -0.060569  -0.040481  -0.031348   0.536541   5.052612   0.519124
     6  C    0.526098  -0.018899  -0.040481  -0.018816   0.519124   4.620026
     7  H    0.006329  -0.039727   0.339485  -0.040344   0.003939   0.000919
     8  H    0.001526   0.002632  -0.035839   0.365255  -0.035840   0.002632
     9  H    0.006329   0.000919   0.003939  -0.040344   0.339485  -0.039727
    10  C    0.005646  -0.000042   0.000004   0.000115  -0.004533  -0.044560
    11  C    0.003341   0.001756  -0.000030   0.000025   0.002989  -0.060152
    12  C   -0.000620   0.000002  -0.000000   0.000001   0.000106   0.006868
    13  C    0.000135   0.000000  -0.000001   0.000044   0.001950  -0.003227
    14  C    0.000002  -0.000000   0.000000  -0.000000   0.000002  -0.000026
    15  C    0.000002  -0.000000   0.000000  -0.000001   0.000076   0.000057
    16  H   -0.000024   0.000001   0.000001   0.000081   0.000151   0.000796
    17  C    0.000000   0.000000   0.000000   0.000000  -0.000001  -0.000003
    18  H   -0.000000   0.000000   0.000000   0.000000  -0.000000   0.000002
    19  H   -0.000000   0.000000  -0.000000   0.000000   0.000001  -0.000003
    20  H    0.000000  -0.000000   0.000000  -0.000000  -0.000000  -0.000000
    21  C    0.005646  -0.044560  -0.004533   0.000115   0.000004  -0.000042
    22  C    0.003342  -0.060152   0.002989   0.000025  -0.000030   0.001756
    23  C   -0.000620   0.006868   0.000106   0.000001  -0.000000   0.000002
    24  C    0.000135  -0.003227   0.001950   0.000044  -0.000001   0.000000
    25  C    0.000002  -0.000026   0.000002  -0.000000   0.000000  -0.000000
    26  C    0.000002   0.000057   0.000076  -0.000001   0.000000  -0.000000
    27  H   -0.000024   0.000796   0.000151   0.000081   0.000001   0.000001
    28  C    0.000000  -0.000003  -0.000001   0.000000   0.000000   0.000000
    29  H   -0.000000   0.000002  -0.000000   0.000000   0.000000   0.000000
    30  H   -0.000000  -0.000003   0.000001   0.000000  -0.000000   0.000000
    31  H    0.000000  -0.000000  -0.000000  -0.000000   0.000000  -0.000000
    32  N   -0.041629   0.244770  -0.077034   0.004540   0.000025   0.006231
    33  N    0.001652   0.006251  -0.000141   0.000001   0.000000  -0.000036
    34  N   -0.041629   0.006231   0.000025   0.004540  -0.077034   0.244770
    35  N    0.001652  -0.000036   0.000000   0.000001  -0.000141   0.006251
    36  C   -0.000008   0.000000   0.000000  -0.000000   0.000002  -0.000030
    37  H   -0.000001  -0.000000   0.000000   0.000000  -0.000000   0.000003
    38  H   -0.000001  -0.000000   0.000000   0.000000  -0.000000   0.000003
    39  H   -0.000013   0.000001   0.000000  -0.000000   0.000000  -0.000007
    40  C   -0.000008  -0.000030   0.000002  -0.000000   0.000000   0.000000
    41  H   -0.000001   0.000003  -0.000000   0.000000   0.000000  -0.000000
    42  H   -0.000001   0.000003  -0.000000   0.000000   0.000000  -0.000000
    43  H   -0.000013  -0.000007   0.000000  -0.000000   0.000000   0.000001
    44  Co   0.254688  -0.055145   0.006847   0.002236   0.006847  -0.055146
               7          8          9         10         11         12
     1  C    0.006329   0.001526   0.006329   0.005646   0.003341  -0.000620
     2  C   -0.039727   0.002632   0.000919  -0.000042   0.001756   0.000002
     3  C    0.339485  -0.035839   0.003939   0.000004  -0.000030  -0.000000
     4  C   -0.040344   0.365255  -0.040344   0.000115   0.000025   0.000001
     5  C    0.003939  -0.035840   0.339485  -0.004533   0.002989   0.000106
     6  C    0.000919   0.002632  -0.039727  -0.044560  -0.060152   0.006868
     7  H    0.574345  -0.004026  -0.000087  -0.000000  -0.000001   0.000000
     8  H   -0.004026   0.550571  -0.004026  -0.000002   0.000001  -0.000000
     9  H   -0.000087  -0.004026   0.574344   0.000401  -0.000177  -0.000042
    10  C   -0.000000  -0.000002   0.000401   4.640255  -0.066681   0.515740
    11  C   -0.000001   0.000001  -0.000177  -0.066681   4.790967  -0.053577
    12  C    0.000000  -0.000000  -0.000042   0.515740  -0.053577   4.662383
    13  C   -0.000000   0.000002  -0.000373   0.536470   0.004314  -0.055615
    14  C   -0.000000   0.000000  -0.000000  -0.048897   0.004704   0.532563
    15  C   -0.000000   0.000000   0.000112  -0.006522  -0.000052  -0.037804
    16  H    0.000000  -0.000010   0.006437  -0.033103  -0.000151   0.003736
    17  C    0.000000  -0.000000   0.000002  -0.038921  -0.000055  -0.008835
    18  H    0.000000  -0.000000  -0.000000   0.003923  -0.000201  -0.037709
    19  H    0.000000   0.000000  -0.000008   0.001914   0.000003   0.000916
    20  H   -0.000000  -0.000000   0.000000   0.000886   0.000002   0.002300
    21  C    0.000401  -0.000002  -0.000000  -0.000000  -0.000006   0.000000
    22  C   -0.000177   0.000001  -0.000001  -0.000006  -0.011815  -0.000001
    23  C   -0.000042  -0.000000   0.000000   0.000000  -0.000001  -0.000000
    24  C   -0.000373   0.000002  -0.000000   0.000000   0.000000   0.000000
    25  C   -0.000000   0.000000  -0.000000  -0.000000   0.000000   0.000000
    26  C    0.000112   0.000000  -0.000000  -0.000000  -0.000000   0.000000
    27  H    0.006437  -0.000010   0.000000   0.000000   0.000000  -0.000000
    28  C    0.000002  -0.000000   0.000000   0.000000  -0.000000  -0.000000
    29  H   -0.000000  -0.000000   0.000000   0.000000   0.000000  -0.000000
    30  H   -0.000008   0.000000   0.000000   0.000000   0.000000  -0.000000
    31  H    0.000000  -0.000000  -0.000000   0.000000   0.000000   0.000000
    32  N   -0.003355  -0.000094   0.000009   0.000000   0.000243   0.000000
    33  N   -0.000000  -0.000000  -0.000000   0.000000   0.000026   0.000000
    34  N    0.000009  -0.000094  -0.003355   0.255866   0.351088  -0.041151
    35  N   -0.000000  -0.000000  -0.000000  -0.046732   0.301840   0.260742
    36  C   -0.000000   0.000000  -0.000000   0.005467  -0.045330  -0.048220
    37  H    0.000000  -0.000000   0.000000  -0.000131   0.000564  -0.001024
    38  H    0.000000  -0.000000   0.000000  -0.000131   0.000558  -0.001021
    39  H    0.000000   0.000000   0.000000   0.000013   0.000638   0.002662
    40  C   -0.000000   0.000000  -0.000000   0.000000   0.000013   0.000000
    41  H    0.000000  -0.000000   0.000000  -0.000000  -0.000000  -0.000000
    42  H    0.000000  -0.000000   0.000000  -0.000000  -0.000000  -0.000000
    43  H    0.000000   0.000000   0.000000  -0.000000  -0.000002  -0.000000
    44  Co  -0.000652   0.000128  -0.000652   0.007063   0.363848   0.005902
              13         14         15         16         17         18
     1  C    0.000135   0.000002   0.000002  -0.000024   0.000000  -0.000000
     2  C    0.000000  -0.000000  -0.000000   0.000001   0.000000   0.000000
     3  C   -0.000001   0.000000   0.000000   0.000001   0.000000   0.000000
     4  C    0.000044  -0.000000  -0.000001   0.000081   0.000000   0.000000
     5  C    0.001950   0.000002   0.000076   0.000151  -0.000001  -0.000000
     6  C   -0.003227  -0.000026   0.000057   0.000796  -0.000003   0.000002
     7  H   -0.000000  -0.000000  -0.000000   0.000000   0.000000   0.000000
     8  H    0.000002   0.000000   0.000000  -0.000010  -0.000000  -0.000000
     9  H   -0.000373  -0.000000   0.000112   0.006437   0.000002  -0.000000
    10  C    0.536470  -0.048897  -0.006522  -0.033103  -0.038921   0.003923
    11  C    0.004314   0.004704  -0.000052  -0.000151  -0.000055  -0.000201
    12  C   -0.055615   0.532563  -0.037804   0.003736  -0.008835  -0.037709
    13  C    5.021197  -0.044814   0.511231   0.355497  -0.036046   0.000274
    14  C   -0.044814   5.027542  -0.037216   0.000437   0.518168   0.362317
    15  C    0.511231  -0.037216   4.897295  -0.035614   0.554389   0.003843
    16  H    0.355497   0.000437  -0.035614   0.510230   0.003646   0.000013
    17  C   -0.036046   0.518168   0.554389   0.003646   4.889320  -0.035250
    18  H    0.000274   0.362317   0.003843   0.000013  -0.035250   0.532376
    19  H   -0.035329   0.003934   0.369021  -0.003896  -0.035967  -0.000144
    20  H    0.003979  -0.036667  -0.036276  -0.000145   0.368450  -0.004154
    21  C    0.000000  -0.000000  -0.000000   0.000000   0.000000   0.000000
    22  C    0.000000   0.000000  -0.000000   0.000000  -0.000000   0.000000
    23  C    0.000000   0.000000   0.000000  -0.000000  -0.000000  -0.000000
    24  C    0.000000  -0.000000   0.000000   0.000000   0.000000   0.000000
    25  C   -0.000000  -0.000000   0.000000  -0.000000  -0.000000   0.000000
    26  C    0.000000   0.000000  -0.000000  -0.000000  -0.000000   0.000000
    27  H    0.000000  -0.000000  -0.000000   0.000000   0.000000  -0.000000
    28  C    0.000000  -0.000000  -0.000000   0.000000   0.000000   0.000000
    29  H    0.000000   0.000000   0.000000  -0.000000   0.000000  -0.000000
    30  H   -0.000000  -0.000000   0.000000  -0.000000   0.000000   0.000000
    31  H   -0.000000   0.000000   0.000000  -0.000000   0.000000   0.000000
    32  N   -0.000000   0.000000   0.000000   0.000000   0.000000  -0.000000
    33  N    0.000000  -0.000000   0.000000   0.000000   0.000000  -0.000000
    34  N   -0.076115   0.009317   0.005072  -0.004975  -0.000209  -0.000094
    35  N    0.009604  -0.081597  -0.000184  -0.000098   0.005339  -0.007258
    36  C   -0.000120  -0.002684   0.000009   0.000003  -0.000107   0.004225
    37  H   -0.000009   0.002483  -0.000001  -0.000000  -0.000004   0.000506
    38  H   -0.000009   0.002480  -0.000001  -0.000000  -0.000004   0.000504
    39  H    0.000005   0.000009  -0.000000  -0.000000   0.000001  -0.000032
    40  C    0.000000   0.000000  -0.000000   0.000000   0.000000  -0.000000
    41  H   -0.000000  -0.000000   0.000000  -0.000000   0.000000  -0.000000
    42  H   -0.000000  -0.000000   0.000000  -0.000000   0.000000  -0.000000
    43  H   -0.000000   0.000000  -0.000000   0.000000  -0.000000   0.000000
    44  Co  -0.001258  -0.001352   0.000165   0.000046   0.000150   0.000025
              19         20         21         22         23         24
     1  C   -0.000000   0.000000   0.005646   0.003342  -0.000620   0.000135
     2  C    0.000000  -0.000000  -0.044560  -0.060152   0.006868  -0.003227
     3  C   -0.000000   0.000000  -0.004533   0.002989   0.000106   0.001950
     4  C    0.000000  -0.000000   0.000115   0.000025   0.000001   0.000044
     5  C    0.000001  -0.000000   0.000004  -0.000030  -0.000000  -0.000001
     6  C   -0.000003  -0.000000  -0.000042   0.001756   0.000002   0.000000
     7  H    0.000000  -0.000000   0.000401  -0.000177  -0.000042  -0.000373
     8  H    0.000000  -0.000000  -0.000002   0.000001  -0.000000   0.000002
     9  H   -0.000008   0.000000  -0.000000  -0.000001   0.000000  -0.000000
    10  C    0.001914   0.000886  -0.000000  -0.000006   0.000000   0.000000
    11  C    0.000003   0.000002  -0.000006  -0.011815  -0.000001   0.000000
    12  C    0.000916   0.002300   0.000000  -0.000001  -0.000000   0.000000
    13  C   -0.035329   0.003979   0.000000   0.000000   0.000000   0.000000
    14  C    0.003934  -0.036667  -0.000000   0.000000   0.000000  -0.000000
    15  C    0.369021  -0.036276  -0.000000  -0.000000   0.000000   0.000000
    16  H   -0.003896  -0.000145   0.000000   0.000000  -0.000000   0.000000
    17  C   -0.035967   0.368450   0.000000  -0.000000  -0.000000   0.000000
    18  H   -0.000144  -0.004154   0.000000   0.000000  -0.000000   0.000000
    19  H    0.529911  -0.004528   0.000000   0.000000  -0.000000  -0.000000
    20  H   -0.004528   0.534835   0.000000   0.000000   0.000000  -0.000000
    21  C    0.000000   0.000000   4.640252  -0.066680   0.515739   0.536471
    22  C    0.000000   0.000000  -0.066680   4.790968  -0.053577   0.004314
    23  C   -0.000000   0.000000   0.515739  -0.053577   4.662380  -0.055615
    24  C   -0.000000  -0.000000   0.536471   0.004314  -0.055615   5.021199
    25  C   -0.000000   0.000000  -0.048897   0.004704   0.532564  -0.044815
    26  C    0.000000   0.000000  -0.006521  -0.000052  -0.037805   0.511231
    27  H   -0.000000  -0.000000  -0.033103  -0.000151   0.003736   0.355496
    28  C    0.000000   0.000000  -0.038921  -0.000055  -0.008835  -0.036046
    29  H    0.000000   0.000000   0.003923  -0.000201  -0.037709   0.000274
    30  H    0.000000   0.000000   0.001914   0.000003   0.000916  -0.035329
    31  H    0.000000   0.000000   0.000886   0.000002   0.002300   0.003979
    32  N    0.000000   0.000000   0.255865   0.351087  -0.041150  -0.076116
    33  N   -0.000000  -0.000000  -0.046732   0.301839   0.260742   0.009604
    34  N   -0.000088   0.000004   0.000000   0.000243   0.000000  -0.000000
    35  N    0.000004  -0.000099   0.000000   0.000026   0.000000   0.000000
    36  C   -0.000000  -0.000002   0.000000   0.000013   0.000000   0.000000
    37  H   -0.000000  -0.000000  -0.000000  -0.000000  -0.000000  -0.000000
    38  H   -0.000000  -0.000000  -0.000000  -0.000000  -0.000000  -0.000000
    39  H   -0.000000  -0.000000  -0.000000  -0.000002  -0.000000  -0.000000
    40  C    0.000000  -0.000000   0.005466  -0.045329  -0.048220  -0.000120
    41  H   -0.000000   0.000000  -0.000131   0.000558  -0.001020  -0.000009
    42  H   -0.000000   0.000000  -0.000131   0.000565  -0.001025  -0.000009
    43  H   -0.000000   0.000000   0.000013   0.000638   0.002662   0.000005
    44  Co   0.000012  -0.000011   0.007063   0.363849   0.005902  -0.001258
              25         26         27         28         29         30
     1  C    0.000002   0.000002  -0.000024   0.000000  -0.000000  -0.000000
     2  C   -0.000026   0.000057   0.000796  -0.000003   0.000002  -0.000003
     3  C    0.000002   0.000076   0.000151  -0.000001  -0.000000   0.000001
     4  C   -0.000000  -0.000001   0.000081   0.000000   0.000000   0.000000
     5  C    0.000000   0.000000   0.000001   0.000000   0.000000  -0.000000
     6  C   -0.000000  -0.000000   0.000001   0.000000   0.000000   0.000000
     7  H   -0.000000   0.000112   0.006437   0.000002  -0.000000  -0.000008
     8  H    0.000000   0.000000  -0.000010  -0.000000  -0.000000   0.000000
     9  H   -0.000000  -0.000000   0.000000   0.000000   0.000000   0.000000
    10  C   -0.000000  -0.000000   0.000000   0.000000   0.000000   0.000000
    11  C    0.000000  -0.000000   0.000000  -0.000000   0.000000   0.000000
    12  C    0.000000   0.000000  -0.000000  -0.000000  -0.000000  -0.000000
    13  C   -0.000000   0.000000   0.000000   0.000000   0.000000  -0.000000
    14  C   -0.000000   0.000000  -0.000000  -0.000000   0.000000  -0.000000
    15  C    0.000000  -0.000000  -0.000000  -0.000000   0.000000   0.000000
    16  H   -0.000000  -0.000000   0.000000   0.000000  -0.000000  -0.000000
    17  C   -0.000000  -0.000000   0.000000   0.000000   0.000000   0.000000
    18  H    0.000000   0.000000  -0.000000   0.000000  -0.000000   0.000000
    19  H   -0.000000   0.000000  -0.000000   0.000000   0.000000   0.000000
    20  H    0.000000   0.000000  -0.000000   0.000000   0.000000   0.000000
    21  C   -0.048897  -0.006521  -0.033103  -0.038921   0.003923   0.001914
    22  C    0.004704  -0.000052  -0.000151  -0.000055  -0.000201   0.000003
    23  C    0.532564  -0.037805   0.003736  -0.008835  -0.037709   0.000916
    24  C   -0.044815   0.511231   0.355496  -0.036046   0.000274  -0.035329
    25  C    5.027545  -0.037216   0.000437   0.518167   0.362317   0.003934
    26  C   -0.037216   4.897296  -0.035614   0.554389   0.003843   0.369021
    27  H    0.000437  -0.035614   0.510231   0.003646   0.000013  -0.003896
    28  C    0.518167   0.554389   0.003646   4.889321  -0.035250  -0.035967
    29  H    0.362317   0.003843   0.000013  -0.035250   0.532378  -0.000144
    30  H    0.003934   0.369021  -0.003896  -0.035967  -0.000144   0.529910
    31  H   -0.036667  -0.036276  -0.000145   0.368450  -0.004154  -0.004528
    32  N    0.009317   0.005072  -0.004976  -0.000209  -0.000094  -0.000088
    33  N   -0.081597  -0.000184  -0.000098   0.005339  -0.007258   0.000004
    34  N    0.000000   0.000000   0.000000   0.000000  -0.000000   0.000000
    35  N   -0.000000   0.000000   0.000000   0.000000  -0.000000  -0.000000
    36  C    0.000000  -0.000000   0.000000   0.000000  -0.000000   0.000000
    37  H   -0.000000   0.000000  -0.000000   0.000000  -0.000000  -0.000000
    38  H   -0.000000   0.000000  -0.000000   0.000000  -0.000000  -0.000000
    39  H    0.000000  -0.000000   0.000000  -0.000000   0.000000  -0.000000
    40  C   -0.002684   0.000009   0.000003  -0.000107   0.004225  -0.000000
    41  H    0.002480  -0.000001  -0.000000  -0.000004   0.000504  -0.000000
    42  H    0.002483  -0.000001  -0.000000  -0.000004   0.000506  -0.000000
    43  H    0.000009  -0.000000  -0.000000   0.000001  -0.000032  -0.000000
    44  Co  -0.001352   0.000165   0.000046   0.000150   0.000025   0.000012
              31         32         33         34         35         36
     1  C    0.000000  -0.041629   0.001652  -0.041629   0.001652  -0.000008
     2  C   -0.000000   0.244770   0.006251   0.006231  -0.000036   0.000000
     3  C   -0.000000  -0.077034  -0.000141   0.000025   0.000000   0.000000
     4  C   -0.000000   0.004540   0.000001   0.004540   0.000001  -0.000000
     5  C    0.000000   0.000025   0.000000  -0.077034  -0.000141   0.000002
     6  C   -0.000000   0.006231  -0.000036   0.244770   0.006251  -0.000030
     7  H    0.000000  -0.003355  -0.000000   0.000009  -0.000000  -0.000000
     8  H   -0.000000  -0.000094  -0.000000  -0.000094  -0.000000   0.000000
     9  H   -0.000000   0.000009  -0.000000  -0.003355  -0.000000  -0.000000
    10  C    0.000000   0.000000   0.000000   0.255866  -0.046732   0.005467
    11  C    0.000000   0.000243   0.000026   0.351088   0.301840  -0.045330
    12  C    0.000000   0.000000   0.000000  -0.041151   0.260742  -0.048220
    13  C   -0.000000  -0.000000   0.000000  -0.076115   0.009604  -0.000120
    14  C    0.000000   0.000000  -0.000000   0.009317  -0.081597  -0.002684
    15  C    0.000000   0.000000   0.000000   0.005072  -0.000184   0.000009
    16  H   -0.000000   0.000000   0.000000  -0.004975  -0.000098   0.000003
    17  C    0.000000   0.000000   0.000000  -0.000209   0.005339  -0.000107
    18  H    0.000000  -0.000000  -0.000000  -0.000094  -0.007258   0.004225
    19  H    0.000000   0.000000  -0.000000  -0.000088   0.000004  -0.000000
    20  H    0.000000   0.000000  -0.000000   0.000004  -0.000099  -0.000002
    21  C    0.000886   0.255865  -0.046732   0.000000   0.000000   0.000000
    22  C    0.000002   0.351087   0.301839   0.000243   0.000026   0.000013
    23  C    0.002300  -0.041150   0.260742   0.000000   0.000000   0.000000
    24  C    0.003979  -0.076116   0.009604  -0.000000   0.000000   0.000000
    25  C   -0.036667   0.009317  -0.081597   0.000000  -0.000000   0.000000
    26  C   -0.036276   0.005072  -0.000184   0.000000   0.000000  -0.000000
    27  H   -0.000145  -0.004976  -0.000098   0.000000   0.000000   0.000000
    28  C    0.368450  -0.000209   0.005339   0.000000   0.000000   0.000000
    29  H   -0.004154  -0.000094  -0.007258  -0.000000  -0.000000  -0.000000
    30  H   -0.004528  -0.000088   0.000004   0.000000  -0.000000   0.000000
    31  H    0.534835   0.000004  -0.000099   0.000000  -0.000000  -0.000000
    32  N    0.000004   7.221607  -0.060483  -0.000052   0.000000   0.000000
    33  N   -0.000099  -0.060483   7.063533   0.000000  -0.000000  -0.000000
    34  N    0.000000  -0.000052   0.000000   7.221603  -0.060483   0.004610
    35  N   -0.000000   0.000000  -0.000000  -0.060483   7.063530   0.300344
    36  C   -0.000000   0.000000  -0.000000   0.004610   0.300344   5.060733
    37  H    0.000000   0.000000   0.000000  -0.000066  -0.041213   0.377052
    38  H    0.000000   0.000000   0.000000  -0.000066  -0.041216   0.377058
    39  H    0.000000  -0.000000   0.000001   0.000165  -0.032496   0.376035
    40  C   -0.000002   0.004610   0.300344   0.000000  -0.000000   0.000000
    41  H   -0.000000  -0.000066  -0.041216   0.000000   0.000000  -0.000000
    42  H   -0.000000  -0.000066  -0.041212   0.000000   0.000000  -0.000000
    43  H   -0.000000   0.000165  -0.032496  -0.000000   0.000001  -0.000000
    44  Co  -0.000011  -0.072185  -0.054952  -0.072185  -0.054952  -0.007699
              37         38         39         40         41         42
     1  C   -0.000001  -0.000001  -0.000013  -0.000008  -0.000001  -0.000001
     2  C   -0.000000  -0.000000   0.000001  -0.000030   0.000003   0.000003
     3  C    0.000000   0.000000   0.000000   0.000002  -0.000000  -0.000000
     4  C    0.000000   0.000000  -0.000000  -0.000000   0.000000   0.000000
     5  C   -0.000000  -0.000000   0.000000   0.000000   0.000000   0.000000
     6  C    0.000003   0.000003  -0.000007   0.000000  -0.000000  -0.000000
     7  H    0.000000   0.000000   0.000000  -0.000000   0.000000   0.000000
     8  H   -0.000000  -0.000000   0.000000   0.000000  -0.000000  -0.000000
     9  H    0.000000   0.000000   0.000000  -0.000000   0.000000   0.000000
    10  C   -0.000131  -0.000131   0.000013   0.000000  -0.000000  -0.000000
    11  C    0.000564   0.000558   0.000638   0.000013  -0.000000  -0.000000
    12  C   -0.001024  -0.001021   0.002662   0.000000  -0.000000  -0.000000
    13  C   -0.000009  -0.000009   0.000005   0.000000  -0.000000  -0.000000
    14  C    0.002483   0.002480   0.000009   0.000000  -0.000000  -0.000000
    15  C   -0.000001  -0.000001  -0.000000  -0.000000   0.000000   0.000000
    16  H   -0.000000  -0.000000  -0.000000   0.000000  -0.000000  -0.000000
    17  C   -0.000004  -0.000004   0.000001   0.000000   0.000000   0.000000
    18  H    0.000506   0.000504  -0.000032  -0.000000  -0.000000  -0.000000
    19  H   -0.000000  -0.000000  -0.000000   0.000000  -0.000000  -0.000000
    20  H   -0.000000  -0.000000  -0.000000  -0.000000   0.000000   0.000000
    21  C   -0.000000  -0.000000  -0.000000   0.005466  -0.000131  -0.000131
    22  C   -0.000000  -0.000000  -0.000002  -0.045329   0.000558   0.000565
    23  C   -0.000000  -0.000000  -0.000000  -0.048220  -0.001020  -0.001025
    24  C   -0.000000  -0.000000  -0.000000  -0.000120  -0.000009  -0.000009
    25  C   -0.000000  -0.000000   0.000000  -0.002684   0.002480   0.002483
    26  C    0.000000   0.000000  -0.000000   0.000009  -0.000001  -0.000001
    27  H   -0.000000  -0.000000   0.000000   0.000003  -0.000000  -0.000000
    28  C    0.000000   0.000000  -0.000000  -0.000107  -0.000004  -0.000004
    29  H   -0.000000  -0.000000   0.000000   0.004225   0.000504   0.000506
    30  H   -0.000000  -0.000000  -0.000000  -0.000000  -0.000000  -0.000000
    31  H    0.000000   0.000000   0.000000  -0.000002  -0.000000  -0.000000
    32  N    0.000000   0.000000  -0.000000   0.004610  -0.000066  -0.000066
    33  N    0.000000   0.000000   0.000001   0.300344  -0.041216  -0.041212
    34  N   -0.000066  -0.000066   0.000165   0.000000   0.000000   0.000000
    35  N   -0.041213  -0.041216  -0.032496  -0.000000   0.000000   0.000000
    36  C    0.377052   0.377058   0.376035   0.000000  -0.000000  -0.000000
    37  H    0.524135  -0.040053  -0.025008  -0.000000   0.000000  -0.000000
    38  H   -0.040053   0.524132  -0.025015  -0.000000  -0.000000   0.000000
    39  H   -0.025008  -0.025015   0.468360  -0.000000   0.000000   0.000000
    40  C   -0.000000  -0.000000  -0.000000   5.060733   0.377059   0.377051
    41  H    0.000000  -0.000000   0.000000   0.377059   0.524132  -0.040054
    42  H   -0.000000   0.000000   0.000000   0.377051  -0.040054   0.524136
    43  H    0.000000   0.000000  -0.000023   0.376035  -0.025016  -0.025007
    44  Co   0.000693   0.000696   0.008730  -0.007699   0.000697   0.000693
              43         44
     1  C   -0.000013   0.254688
     2  C   -0.000007  -0.055145
     3  C    0.000000   0.006847
     4  C   -0.000000   0.002236
     5  C    0.000000   0.006847
     6  C    0.000001  -0.055146
     7  H    0.000000  -0.000652
     8  H    0.000000   0.000128
     9  H    0.000000  -0.000652
    10  C   -0.000000   0.007063
    11  C   -0.000002   0.363848
    12  C   -0.000000   0.005902
    13  C   -0.000000  -0.001258
    14  C    0.000000  -0.001352
    15  C   -0.000000   0.000165
    16  H    0.000000   0.000046
    17  C   -0.000000   0.000150
    18  H    0.000000   0.000025
    19  H   -0.000000   0.000012
    20  H    0.000000  -0.000011
    21  C    0.000013   0.007063
    22  C    0.000638   0.363849
    23  C    0.002662   0.005902
    24  C    0.000005  -0.001258
    25  C    0.000009  -0.001352
    26  C   -0.000000   0.000165
    27  H   -0.000000   0.000046
    28  C    0.000001   0.000150
    29  H   -0.000032   0.000025
    30  H   -0.000000   0.000012
    31  H   -0.000000  -0.000011
    32  N    0.000165  -0.072185
    33  N   -0.032496  -0.054952
    34  N   -0.000000  -0.072185
    35  N    0.000001  -0.054952
    36  C   -0.000000  -0.007699
    37  H    0.000000   0.000693
    38  H    0.000000   0.000696
    39  H   -0.000023   0.008730
    40  C    0.376035  -0.007699
    41  H   -0.025016   0.000697
    42  H   -0.025007   0.000693
    43  H    0.468360   0.008730
    44  Co   0.008730  16.491968
          Atomic-Atomic Spin Densities.
               1          2          3          4          5          6
     1  C   -0.000000   0.000000   0.000000   0.000000   0.000000   0.000000
     2  C    0.000000   0.000000  -0.000000  -0.000000  -0.000000   0.000000
     3  C    0.000000  -0.000000  -0.000000   0.000000   0.000000  -0.000000
     4  C    0.000000  -0.000000   0.000000  -0.000000   0.000000  -0.000000
     5  C    0.000000  -0.000000   0.000000   0.000000  -0.000000  -0.000000
     6  C    0.000000   0.000000  -0.000000  -0.000000  -0.000000   0.000000
     7  H   -0.000000   0.000000   0.000000   0.000000  -0.000000   0.000000
     8  H   -0.000000   0.000000  -0.000000  -0.000000  -0.000000   0.000000
     9  H   -0.000000   0.000000  -0.000000   0.000000   0.000000   0.000000
    10  C   -0.000000   0.000000   0.000000  -0.000000  -0.000000  -0.000000
    11  C    0.000000  -0.000000   0.000000  -0.000000   0.000000   0.000000
    12  C    0.000000   0.000000  -0.000000  -0.000000  -0.000000  -0.000000
    13  C   -0.000000  -0.000000   0.000000  -0.000000  -0.000000  -0.000000
    14  C   -0.000000   0.000000   0.000000  -0.000000  -0.000000  -0.000000
    15  C   -0.000000  -0.000000   0.000000  -0.000000   0.000000   0.000000
    16  H   -0.000000   0.000000  -0.000000   0.000000  -0.000000   0.000000
    17  C    0.000000   0.000000  -0.000000  -0.000000  -0.000000   0.000000
    18  H    0.000000  -0.000000  -0.000000   0.000000   0.000000   0.000000
    19  H    0.000000   0.000000  -0.000000   0.000000  -0.000000  -0.000000
    20  H   -0.000000   0.000000   0.000000  -0.000000  -0.000000  -0.000000
    21  C   -0.000000  -0.000000  -0.000000  -0.000000   0.000000   0.000000
    22  C    0.000000   0.000000   0.000000  -0.000000   0.000000  -0.000000
    23  C    0.000000  -0.000000  -0.000000  -0.000000  -0.000000   0.000000
    24  C   -0.000000  -0.000000  -0.000000  -0.000000   0.000000  -0.000000
    25  C   -0.000000  -0.000000  -0.000000  -0.000000   0.000000   0.000000
    26  C   -0.000000   0.000000   0.000000  -0.000000   0.000000  -0.000000
    27  H   -0.000000   0.000000  -0.000000   0.000000  -0.000000   0.000000
    28  C    0.000000   0.000000  -0.000000  -0.000000  -0.000000   0.000000
    29  H    0.000000   0.000000   0.000000   0.000000  -0.000000  -0.000000
    30  H    0.000000  -0.000000  -0.000000   0.000000  -0.000000   0.000000
    31  H   -0.000000  -0.000000  -0.000000  -0.000000   0.000000   0.000000
    32  N   -0.000000  -0.000000   0.000000   0.000000  -0.000000   0.000000
    33  N   -0.000000  -0.000000  -0.000000  -0.000000   0.000000   0.000000
    34  N   -0.000000   0.000000  -0.000000   0.000000   0.000000  -0.000000
    35  N   -0.000000   0.000000   0.000000  -0.000000  -0.000000  -0.000000
    36  C   -0.000000   0.000000   0.000000  -0.000000   0.000000  -0.000000
    37  H   -0.000000   0.000000  -0.000000  -0.000000  -0.000000  -0.000000
    38  H    0.000000  -0.000000   0.000000   0.000000   0.000000   0.000000
    39  H    0.000000   0.000000  -0.000000   0.000000   0.000000  -0.000000
    40  C   -0.000000  -0.000000   0.000000  -0.000000   0.000000   0.000000
    41  H    0.000000  -0.000000  -0.000000   0.000000  -0.000000   0.000000
    42  H    0.000000   0.000000   0.000000   0.000000   0.000000  -0.000000
    43  H    0.000000  -0.000000   0.000000   0.000000  -0.000000   0.000000
    44  Co   0.000000  -0.000000   0.000000   0.000000   0.000000  -0.000000
               7          8          9         10         11         12
     1  C   -0.000000  -0.000000  -0.000000  -0.000000   0.000000   0.000000
     2  C    0.000000   0.000000   0.000000   0.000000  -0.000000   0.000000
     3  C    0.000000  -0.000000  -0.000000   0.000000   0.000000  -0.000000
     4  C    0.000000  -0.000000   0.000000  -0.000000  -0.000000  -0.000000
     5  C   -0.000000  -0.000000   0.000000  -0.000000   0.000000  -0.000000
     6  C    0.000000   0.000000   0.000000  -0.000000   0.000000  -0.000000
     7  H   -0.000000   0.000000  -0.000000   0.000000  -0.000000   0.000000
     8  H    0.000000   0.000000   0.000000   0.000000  -0.000000   0.000000
     9  H   -0.000000   0.000000  -0.000000   0.000000  -0.000000   0.000000
    10  C    0.000000   0.000000   0.000000   0.000000  -0.000000   0.000000
    11  C   -0.000000  -0.000000  -0.000000  -0.000000  -0.000000  -0.000000
    12  C    0.000000   0.000000   0.000000   0.000000  -0.000000   0.000000
    13  C    0.000000  -0.000000   0.000000  -0.000000  -0.000000  -0.000000
    14  C    0.000000   0.000000   0.000000   0.000000   0.000000   0.000000
    15  C   -0.000000  -0.000000   0.000000   0.000000   0.000000  -0.000000
    16  H    0.000000   0.000000  -0.000000   0.000000  -0.000000   0.000000
    17  C    0.000000   0.000000   0.000000  -0.000000  -0.000000   0.000000
    18  H   -0.000000  -0.000000  -0.000000  -0.000000  -0.000000  -0.000000
    19  H    0.000000   0.000000   0.000000  -0.000000  -0.000000   0.000000
    20  H    0.000000   0.000000   0.000000   0.000000   0.000000  -0.000000
    21  C    0.000000   0.000000   0.000000   0.000000  -0.000000   0.000000
    22  C   -0.000000  -0.000000  -0.000000  -0.000000  -0.000000  -0.000000
    23  C    0.000000   0.000000   0.000000   0.000000  -0.000000  -0.000000
    24  C    0.000000  -0.000000   0.000000  -0.000000   0.000000  -0.000000
    25  C    0.000000   0.000000   0.000000  -0.000000   0.000000   0.000000
    26  C    0.000000  -0.000000  -0.000000  -0.000000  -0.000000   0.000000
    27  H   -0.000000   0.000000   0.000000   0.000000  -0.000000   0.000000
    28  C    0.000000   0.000000   0.000000   0.000000  -0.000000   0.000000
    29  H   -0.000000  -0.000000  -0.000000   0.000000  -0.000000  -0.000000
    30  H    0.000000   0.000000   0.000000   0.000000   0.000000  -0.000000
    31  H    0.000000   0.000000   0.000000  -0.000000   0.000000   0.000000
    32  N   -0.000000   0.000000  -0.000000   0.000000  -0.000000  -0.000000
    33  N    0.000000   0.000000   0.000000  -0.000000   0.000000   0.000000
    34  N   -0.000000   0.000000  -0.000000   0.000000   0.000000  -0.000000
    35  N    0.000000   0.000000   0.000000  -0.000000   0.000000   0.000000
    36  C    0.000000  -0.000000  -0.000000  -0.000000   0.000000  -0.000000
    37  H    0.000000   0.000000   0.000000   0.000000   0.000000   0.000000
    38  H   -0.000000  -0.000000  -0.000000  -0.000000  -0.000000  -0.000000
    39  H   -0.000000   0.000000  -0.000000  -0.000000  -0.000000  -0.000000
    40  C   -0.000000  -0.000000   0.000000  -0.000000   0.000000   0.000000
    41  H   -0.000000   0.000000  -0.000000   0.000000  -0.000000  -0.000000
    42  H   -0.000000  -0.000000  -0.000000  -0.000000   0.000000   0.000000
    43  H   -0.000000   0.000000  -0.000000   0.000000  -0.000000  -0.000000
    44  Co  -0.000000  -0.000000  -0.000000  -0.000000  -0.000000  -0.000000
              13         14         15         16         17         18
     1  C   -0.000000  -0.000000  -0.000000  -0.000000   0.000000   0.000000
     2  C   -0.000000   0.000000  -0.000000   0.000000   0.000000  -0.000000
     3  C    0.000000   0.000000   0.000000  -0.000000  -0.000000  -0.000000
     4  C   -0.000000  -0.000000  -0.000000   0.000000  -0.000000   0.000000
     5  C   -0.000000  -0.000000   0.000000  -0.000000  -0.000000   0.000000
     6  C   -0.000000  -0.000000   0.000000   0.000000   0.000000   0.000000
     7  H    0.000000   0.000000  -0.000000   0.000000   0.000000  -0.000000
     8  H   -0.000000   0.000000  -0.000000   0.000000   0.000000  -0.000000
     9  H    0.000000   0.000000   0.000000  -0.000000   0.000000  -0.000000
    10  C   -0.000000   0.000000   0.000000   0.000000  -0.000000  -0.000000
    11  C   -0.000000   0.000000   0.000000  -0.000000  -0.000000  -0.000000
    12  C   -0.000000   0.000000  -0.000000   0.000000   0.000000  -0.000000
    13  C   -0.000000  -0.000000   0.000000   0.000000   0.000000   0.000000
    14  C   -0.000000  -0.000000   0.000000   0.000000   0.000000   0.000000
    15  C    0.000000   0.000000  -0.000000  -0.000000  -0.000000  -0.000000
[...]
 

 ---------------------------------------------------------------------------------

   1 Symmetry operations used in ECPInt.
 ECPInt:  NShTT=   11781 NPrTT=   71406 LenC2=    9512 LenP2D=   31994.
 LDataN:  DoStor=T MaxTD1= 7 Len=  274
 Calling FoFJK, ICntrl=      2127 FMM=F ISym2X=0 I1Cent= 0 IOpClX= 1 NMat=1 NMatS=1 NMatT=0.
 -------------------------------------------------------------------
 Center     Atomic                   Forces (Hartrees/Bohr)
 Number     Number              X              Y              Z
 -------------------------------------------------------------------
      1        6          -0.000000795   -0.097028973   -0.000004581
      2        6           0.071041808    0.042658731    0.000003540
      3        6          -0.007103638    0.003434166    0.000000772
      4        6           0.000002131    0.002053792   -0.000000730
      5        6           0.007099946    0.003432648    0.000000667
      6        6          -0.071040343    0.042660841    0.000002434
      7        1          -0.000077926    0.005485515   -0.000000847
      8        1          -0.000000156   -0.000953279   -0.000000500
      9        1           0.000078828    0.005486450   -0.000000911
     10        6          -0.011758509   -0.007658810    0.000000881
     11        6           0.000572732    0.004623590   -0.000018705
     12        6           0.014067675    0.006046464   -0.000000571
     13        6           0.012822518    0.005002064   -0.000001463
     14        6           0.001136152    0.006229804   -0.000000549
     15        6          -0.013233725    0.006579362    0.000000870
     16        1           0.000389902   -0.000430592   -0.000000391
     17        6          -0.000211133   -0.012097318   -0.000000091
     18        1           0.000937364    0.000117398    0.000000061
     19        1           0.000065085   -0.000159137   -0.000000081
     20        1           0.000089316    0.000121202    0.000000225
     21        6           0.011760159   -0.007666310   -0.000000156
     22        6          -0.000575148    0.004623505   -0.000021429
     23        6          -0.014064044    0.006050854   -0.000000743
     24        6          -0.012821001    0.005009391   -0.000001007
     25        6          -0.001140307    0.006226836   -0.000001214
     26        6           0.013229599    0.006575276    0.000000298
     27        1          -0.000390663   -0.000432725   -0.000000189
     28        6           0.000214465   -0.012093722    0.000000209
     29        1          -0.000936863    0.000118176   -0.000000198
     30        1          -0.000064404   -0.000159035   -0.000000130
     31        1          -0.000090684    0.000120855    0.000000252
     32        7          -0.021525299   -0.061433936    0.000008629
     33        7           0.028147565    0.022832329    0.000012094
     34        7           0.021525416   -0.061434821    0.000005719
     35        7          -0.028145983    0.022831734    0.000009686
     36        6           0.000048987   -0.010889967   -0.000001158
     37        1           0.000676065    0.001867721    0.000849741
     38        1           0.000676009    0.001868206   -0.000850385
     39        1           0.000600109    0.002132288    0.000001484
     40        6          -0.000049153   -0.010890354   -0.000001193
     41        1          -0.000675740    0.001868801   -0.000850605
     42        1          -0.000676077    0.001867810    0.000849564
     43        1          -0.000599903    0.002132208    0.000001637
     44       27          -0.000000335    0.063270964    0.000009068
 -------------------------------------------------------------------
 Cartesian Forces:  Max     0.097028973 RMS     0.017582299

 GradGradGradGradGradGradGradGradGradGradGradGradGradGradGradGradGradGrad
 Berny optimization.
 Search for a local minimum.
 Step number   1 out of a maximum of    2
 All quantities printed in internal units (Hartrees-Bohrs-Radians)
 Second derivative matrix not updated -- first step.
 ITU=  0
     Eigenvalues ---    0.00054   0.00056   0.00198   0.00243   0.00244
     Eigenvalues ---    0.00383   0.00438   0.00609   0.00656   0.00667
     Eigenvalues ---    0.00668   0.00813   0.00842   0.01317   0.01560
     Eigenvalues ---    0.01798   0.02016   0.02030   0.02527   0.02528
     Eigenvalues ---    0.03046   0.03089   0.04096   0.04197   0.04406
     Eigenvalues ---    0.04488   0.04663   0.05366   0.05521   0.06092
     Eigenvalues ---    0.06157   0.06896   0.06929   0.07024   0.07055
     Eigenvalues ---    0.07057   0.07266   0.07671   0.07740   0.09571
     Eigenvalues ---    0.09839   0.10093   0.10338   0.11447   0.11891
     Eigenvalues ---    0.11950   0.12096   0.12219   0.12800   0.13350
     Eigenvalues ---    0.13351   0.13425   0.13634   0.14716   0.15319
     Eigenvalues ---    0.15467   0.15858   0.19327   0.19825   0.20016
     Eigenvalues ---    0.20979   0.21902   0.23991   0.24466   0.28542
     Eigenvalues ---    0.29458   0.29580   0.30148   0.30716   0.31541
     Eigenvalues ---    0.31767   0.34626   0.35170   0.36446   0.37151
     Eigenvalues ---    0.37543   0.41111   0.41621   0.44370   0.46932
     Eigenvalues ---    0.48223   0.48332   0.49207   0.50846   0.51559
     Eigenvalues ---    0.53482   0.53518   0.54012   0.60514   0.62454
     Eigenvalues ---    0.68587   0.71229   0.72597   0.73868   0.86535
     Eigenvalues ---    0.90234   0.90882   0.91152   0.92752   0.94334
     Eigenvalues ---    0.95153   0.96794   0.99755   1.03929   1.12133
     Eigenvalues ---    1.15620   1.15668   1.18253   1.20543   1.24006
     Eigenvalues ---    1.30789   1.37681   1.37711   1.45297   1.46860
     Eigenvalues ---    1.49471   1.50648   1.53426   1.60565   1.64102
     Eigenvalues ---    1.65624   1.66705   1.77673   1.78861   1.84187
     Eigenvalues ---    1.87946
 Quadratic step=7.758D-01 exceeds max=3.000D-01 adjusted using Lamda=-6.852D-02.
 Angle between NR and scaled steps=  45.18 degrees.
 Angle between quadratic step and forces=  40.10 degrees.
 Linear search not attempted -- first point.
 B after Tr=    -0.000000    0.000070   -0.000000
         Rot=    1.000000   -0.000000   -0.000000    0.000000 Ang=  -0.00 deg.
 Variable       Old X    -DE/DX   Delta X   Delta X   Delta X     New X
                                 (Linear)    (Quad)   (Total)
    X1        0.00000  -0.00000   0.00000  -0.00000  -0.00000   0.00000
    Y1        1.52620  -0.09703   0.00000  -0.16944  -0.16937   1.35683
    Z1        0.00018  -0.00000   0.00000  -0.00002  -0.00002   0.00017
    X2       -2.42647   0.07104   0.00000   0.09015   0.09015  -2.33633
    Y2        2.57127   0.04266   0.00000  -0.02134  -0.02127   2.55000
    Z2        0.00005   0.00000   0.00000   0.00002   0.00002   0.00007
    X3       -2.35554  -0.00710   0.00000   0.02151   0.02151  -2.33403
    Y3        5.21244   0.00343   0.00000  -0.00282  -0.00275   5.20969
    Z3       -0.00003   0.00000   0.00000   0.00001   0.00001  -0.00002
    X4        0.00000   0.00000   0.00000   0.00000   0.00000   0.00000
    Y4        6.43745   0.00205   0.00000   0.01661   0.01668   6.45414
    Z4        0.00001  -0.00000   0.00000  -0.00000   0.00000   0.00001
    X5        2.35555   0.00710   0.00000  -0.02151  -0.02151   2.33404
    Y5        5.21244   0.00343   0.00000  -0.00282  -0.00275   5.20969
    Z5        0.00006   0.00000   0.00000   0.00001   0.00001   0.00007
    X6        2.42648  -0.07104   0.00000  -0.09015  -0.09015   2.33633
    Y6        2.57127   0.04266   0.00000  -0.02134  -0.02127   2.55000
    Z6        0.00012   0.00000   0.00000   0.00001   0.00001   0.00013
    X7       -4.07965  -0.00008   0.00000   0.01694   0.01694  -4.06272
    Y7        6.31643   0.00549   0.00000   0.00913   0.00920   6.32563
    Z7       -0.00008  -0.00000   0.00000  -0.00000  -0.00000  -0.00008
    X8        0.00000  -0.00000   0.00000   0.00000   0.00000   0.00000
    Y8        8.49347  -0.00095   0.00000   0.01161   0.01168   8.50515
    Z8       -0.00001  -0.00000   0.00000  -0.00001  -0.00001  -0.00002
    X9        4.07967   0.00008   0.00000  -0.01694  -0.01694   4.06273
    Y9        6.31643   0.00549   0.00000   0.00913   0.00920   6.32562
    Z9        0.00009  -0.00000   0.00000  -0.00001  -0.00000   0.00008
   X10        6.98795  -0.01176   0.00000  -0.02930  -0.02930   6.95865
   Y10        1.09984  -0.00766   0.00000  -0.01435  -0.01428   1.08555
   Z10       -0.00006   0.00000   0.00000   0.00001   0.00001  -0.00006
   X11        3.63816   0.00057   0.00000  -0.03721  -0.03721   3.60095
   Y11       -1.72437   0.00462   0.00000   0.00930   0.00937  -1.71500
   Z11        0.00027  -0.00002   0.00000  -0.00005  -0.00005   0.00022
   X12        7.92692   0.01407   0.00000  -0.00925  -0.00925   7.91767
   Y12       -1.40377   0.00605   0.00000   0.00725   0.00732  -1.39645
   Z12       -0.00018  -0.00000   0.00000   0.00001   0.00001  -0.00017
   X13        8.60957   0.01282   0.00000  -0.01326  -0.01326   8.59630
   Y13        3.14371   0.00500   0.00000  -0.00164  -0.00157   3.14213
   Z13       -0.00012  -0.00000   0.00000  -0.00000  -0.00000  -0.00012
   X14       10.50770   0.00114   0.00000  -0.00928  -0.00928  10.49842
   Y14       -1.88710   0.00623   0.00000   0.00391   0.00398  -1.88312
   Z14       -0.00037  -0.00000   0.00000   0.00000   0.00000  -0.00037
   X15       11.22454  -0.01323   0.00000  -0.02753  -0.02753  11.19702
   Y15        2.65465   0.00658   0.00000  -0.00107  -0.00100   2.65365
   Z15       -0.00033   0.00000   0.00000  -0.00000  -0.00000  -0.00033
   X16        7.91009   0.00039   0.00000  -0.00415  -0.00415   7.90594
   Y16        5.06886  -0.00043   0.00000  -0.00020  -0.00013   5.06873
   Z16        0.00001  -0.00000   0.00000  -0.00001  -0.00000   0.00000
   X17       12.14444  -0.00021   0.00000  -0.01245  -0.01245  12.13199
   Y17        0.19978  -0.01210   0.00000  -0.01013  -0.01006   0.18972
   Z17       -0.00046  -0.00000   0.00000   0.00000   0.00000  -0.00046
   X18       11.21910   0.00094   0.00000  -0.00130  -0.00130  11.21781
   Y18       -3.81056   0.00012   0.00000   0.00512   0.00519  -3.80537
   Z18       -0.00045   0.00000   0.00000   0.00000   0.00000  -0.00045
   X19       12.52854   0.00007   0.00000  -0.01883  -0.01883  12.50971
   Y19        4.23864  -0.00016   0.00000  -0.00463  -0.00456   4.23408
   Z19       -0.00037  -0.00000   0.00000  -0.00000  -0.00000  -0.00037
   X20       14.17020   0.00009   0.00000  -0.00936  -0.00936  14.16084
   Y20       -0.12826   0.00012   0.00000  -0.00294  -0.00287  -0.13113
   Z20       -0.00062   0.00000   0.00000   0.00000   0.00000  -0.00062
   X21       -6.98794   0.01176   0.00000   0.02930   0.02930  -6.95864
   Y21        1.09983  -0.00767   0.00000  -0.01436  -0.01429   1.08555
   Z21       -0.00009  -0.00000   0.00000   0.00001   0.00001  -0.00008
   X22       -3.63814  -0.00058   0.00000   0.03720   0.03720  -3.60094
   Y22       -1.72438   0.00462   0.00000   0.00930   0.00937  -1.71501
   Z22        0.00021  -0.00002   0.00000  -0.00005  -0.00005   0.00016
   X23       -7.92691  -0.01406   0.00000   0.00926   0.00926  -7.91765
   Y23       -1.40378   0.00605   0.00000   0.00725   0.00732  -1.39646
   Z23       -0.00014  -0.00000   0.00000   0.00001   0.00001  -0.00013
   X24       -8.60957  -0.01282   0.00000   0.01327   0.01327  -8.59630
   Y24        3.14369   0.00501   0.00000  -0.00164  -0.00157   3.14212
   Z24       -0.00011  -0.00000   0.00000  -0.00000  -0.00000  -0.00011
   X25      -10.50769  -0.00114   0.00000   0.00928   0.00928 -10.49841
   Y25       -1.88711   0.00623   0.00000   0.00391   0.00398  -1.88314
   Z25       -0.00019  -0.00000   0.00000  -0.00000  -0.00000  -0.00019
   X26      -11.22454   0.01323   0.00000   0.02752   0.02752 -11.19702
   Y26        2.65464   0.00658   0.00000  -0.00108  -0.00101   2.65364
   Z26       -0.00019   0.00000   0.00000  -0.00000  -0.00000  -0.00019
   X27       -7.91010  -0.00039   0.00000   0.00415   0.00415  -7.90594
   Y27        5.06885  -0.00043   0.00000  -0.00020  -0.00013   5.06871
   Z27       -0.00005  -0.00000   0.00000  -0.00000  -0.00000  -0.00005
   X28      -12.14444   0.00021   0.00000   0.01245   0.01245 -12.13199
   Y28        0.19976  -0.01209   0.00000  -0.01013  -0.01006   0.18970
   Z28       -0.00024   0.00000   0.00000  -0.00000  -0.00000  -0.00024
   X29      -11.21909  -0.00094   0.00000   0.00130   0.00130 -11.21779
   Y29       -3.81058   0.00012   0.00000   0.00512   0.00519  -3.80539
   Z29       -0.00019  -0.00000   0.00000  -0.00000  -0.00000  -0.00019
   X30      -12.52854  -0.00006   0.00000   0.01883   0.01883 -12.50971
   Y30        4.23862  -0.00016   0.00000  -0.00463  -0.00456   4.23406
   Z30       -0.00021  -0.00000   0.00000  -0.00000  -0.00000  -0.00021
   X31      -14.17019  -0.00009   0.00000   0.00936   0.00936 -14.16083
   Y31       -0.12829   0.00012   0.00000  -0.00294  -0.00287  -0.13115
   Z31       -0.00029   0.00000   0.00000   0.00000   0.00000  -0.00029
   X32       -4.36600  -0.02153   0.00000   0.02749   0.02749  -4.33852
   Y32        0.88752  -0.06143   0.00000  -0.05765  -0.05758   0.82994
   Z32        0.00003   0.00001   0.00000   0.00002   0.00002   0.00005
   X33       -5.91140   0.02815   0.00000   0.05250   0.05250  -5.85890
   Y33       -3.03445   0.02283   0.00000   0.03039   0.03046  -3.00400
   Z33       -0.00009   0.00001   0.00000   0.00002   0.00002  -0.00007
   X34        4.36601   0.02153   0.00000  -0.02749  -0.02749   4.33852
   Y34        0.88753  -0.06143   0.00000  -0.05765  -0.05758   0.82995
   Z34        0.00014   0.00001   0.00000   0.00001   0.00001   0.00015
   X35        5.91141  -0.02815   0.00000  -0.05250  -0.05250   5.85891
   Y35       -3.03444   0.02283   0.00000   0.03038   0.03045  -3.00399
   Z35       -0.00006   0.00001   0.00000   0.00001   0.00001  -0.00004
   X36        6.06318   0.00005   0.00000  -0.01891  -0.01891   6.04427
   Y36       -5.72815  -0.01089   0.00000   0.00947   0.00954  -5.71861
   Z36        0.00002  -0.00000   0.00000   0.00001   0.00000   0.00002
   X37        7.03810   0.00068   0.00000  -0.00243  -0.00243   7.03566
   Y37       -6.43721   0.00187   0.00000   0.02380   0.02387  -6.41334
   Z37       -1.68781   0.00085   0.00000   0.00404   0.00404  -1.68377
   X38        7.03719   0.00068   0.00000  -0.00243  -0.00243   7.03476
   Y38       -6.43725   0.00187   0.00000   0.02379   0.02386  -6.41339
   Z38        1.68837  -0.00085   0.00000  -0.00404  -0.00404   1.68433
   X39        4.14424   0.00060   0.00000  -0.01046  -0.01046   4.13378
   Y39       -6.49544   0.00213   0.00000   0.00342   0.00349  -6.49195
   Z39       -0.00054   0.00000   0.00000   0.00001   0.00001  -0.00053
   X40       -6.06316  -0.00005   0.00000   0.01891   0.01891  -6.04425
   Y40       -5.72816  -0.01089   0.00000   0.00947   0.00954  -5.71862
   Z40        0.00008  -0.00000   0.00000   0.00001   0.00000   0.00009
   X41       -7.03705  -0.00068   0.00000   0.00243   0.00243  -7.03462
   Y41       -6.43722   0.00187   0.00000   0.02379   0.02386  -6.41336
   Z41        1.68853  -0.00085   0.00000  -0.00404  -0.00404   1.68449
   X42       -7.03821  -0.00068   0.00000   0.00243   0.00243  -7.03577
   Y42       -6.43728   0.00187   0.00000   0.02380   0.02387  -6.41340
   Z42       -1.68765   0.00085   0.00000   0.00404   0.00404  -1.68361
   X43       -4.14422  -0.00060   0.00000   0.01046   0.01046  -4.13377
   Y43       -6.49545   0.00213   0.00000   0.00342   0.00349  -6.49196
   Z43       -0.00060   0.00000   0.00000   0.00001   0.00001  -0.00059
   X44        0.00001  -0.00000   0.00000  -0.00000  -0.00000   0.00001
   Y44       -2.39783   0.06327   0.00000   0.12055   0.12062  -2.27722
   Z44        0.00022   0.00001   0.00000  -0.00002  -0.00003   0.00020
         Item               Value     Threshold  Converged?
 Maximum Force            0.097029     0.000450     NO 
 RMS     Force            0.017582     0.000300     NO 
 Maximum Displacement     0.169370     0.001800     NO 
 RMS     Displacement     0.026181     0.001200     NO 
 Predicted change in Energy=-2.633999D-02
 GradGradGradGradGradGradGradGradGradGradGradGradGradGradGradGradGradGrad

 Unable to Open any file for archive entry.
 1\1\GINC-X11P1N5\Force\UPBE1PBE\GenECP\C22H17Co1N4\MAYUMIAO\17-Jul-202
 4\0\\# pbe1pbe em=gd3bj genecp g09default scf=(xqc,maxcycle=64) force 
 guess=read nosymm\\Title Card\\0,1\C,0.00000184,0.80762837,0.00009775\
 C,-1.28403347,1.3606597,0.00002717\C,-1.2464995,2.75830277,-0.00001451
 \C,0.00000128,3.4065541,0.00000291\C,1.24650549,2.75830387,0.00003138\
 C,1.28403554,1.36065951,0.00006372\H,-2.1588602,3.34251094,-0.00004177
 \H,0.00000183,4.49455038,-0.00000718\H,2.15886609,3.34250838,0.0000452
 6\C,3.69786323,0.58200866,-0.00003377\C,1.92523111,-0.91249794,0.00014
 177\C,4.19474469,-0.74284216,-0.00009652\C,4.5559869,1.66357719,-0.000
 06288\C,5.56043687,-0.99861121,-0.00019803\C,5.93977244,1.40478194,-0.
 00017235\H,4.18584192,2.68232372,0.00000393\C,6.42656306,0.10571727,-0
 .00024368\H,5.93689438,-2.01646395,-0.00023767\H,6.62981696,2.24299277
 ,-0.00019689\H,7.49854924,-0.06787411,-0.00032896\C,-3.6978604,0.58200
 667,-0.00004525\C,-1.92522296,-0.91250064,0.00010939\C,-4.19473981,-0.
 74284988,-0.00007305\C,-4.55598668,1.66356723,-0.00005795\C,-5.5604283
 ,-0.99861702,-0.00010109\C,-5.93976981,1.40477512,-0.00010219\H,-4.185
 84208,2.68231771,-0.00002523\C,-6.42656029,0.10570695,-0.00012526\H,-5
 .93688662,-2.01647114,-0.00009915\H,-6.62981879,2.24298282,-0.00010948
 \H,-7.49854394,-0.06788629,-0.00015426\N,-2.31038983,0.46965747,0.0000
 1631\N,-3.12817677,-1.60576331,-0.00004625\N,2.31039353,0.46965969,0.0
 0007539\N,3.12818249,-1.60575796,-0.00002932\C,3.20849563,-3.03120719,
 0.00000948\H,3.72440128,-3.40642693,-0.89315253\H,3.72392167,-3.406445
 29,0.89344538\H,2.19303645,-3.43723828,-0.0002837\C,-3.2084879,-3.0312
 126,0.00004486\H,-3.72384752,-3.40642971,0.89352919\H,-3.7244589,-3.40
 645968,-0.89306753\H,-2.19302833,-3.43724189,-0.00031493\Co,0.00000373
 ,-1.2688787,0.00011727\\Version=ES64L-G16RevC.01\HF=-1212.1124154\S2=0
 .\S2-1=0.\S2A=0.\RMSD=4.624e-09\RMSF=1.758e-02\Dipole=0.0000196,-1.432
 3357,-0.000103\Quadrupole=13.6579967,7.17833,-20.8363267,-0.0000265,-0
 .0004045,0.0003367\PG=C01 [X(C22H17Co1N4)]\\@
 The archive entry for this job was punched.


 NOBODY LOSES ALL THE TIME
 I HAD AN UNCLE NAMED
 SOL WHO WAS A BORN FAILURE AND
 NEARLY EVERYBODY SAID HE SHOULD HAVE GONE
 INTO VAUDEVILLE PERHAPS BECAUSE MY UNCLE SOL COULD
 SING MCCANN HE WAS A DIVER ON XMAS EVE LIKE HELL ITSELF WHICH
 MAY OR MAY NOT ACCOUNT FOR THE FACT THAT MY UNCLE
 SOL INDULGED IN THAT POSSIBLY MOST INEXCUSABLE
 OF ALL TO USE A HIGHFALOOTIN PHRASE
 LUXURIES THAT IS OR TO
 WIT FARMING AND BE
 IT NEEDLESSLY
 ADDED
 MY UNCLE SOL'S FARM     
 FAILED BECAUSE THE CHICKENS
 ATE THE VEGETABLES SO
 MY UNCLE SOL HAD A
 CHICKEN FARM TILL THE
 SKUNKS ATE THE CHICKENS WHEN 
 MY UNCLE SOL
 HAD A SKUNK FARM BUT
 THE SKUNKS CAUGHT COLD AND
 DIED AND SO
 MY UNCLE SOL IMITATED THE
 SKUNKS IN A SUBTLE MANNER
 OR BY DROWNING HIMSELF IN THE WATERTANK
 BUT SOMEBODY WHO'D GIVEN MY UNCLE SOL A VICTOR     
 VICTROLA AND RECORDS WHILE HE LIVED PRESENTED TO
 HIM UPON THE AUSPICIOUS OCCASION OF HIS DECEASE A
 SCRUMPTIOUS NOT TO MENTION SPLENDIFEROUS FUNERAL WITH
 TALL BOYS IN BLACK GLOVES AND FLOWERS AND EVERYTHING AND
 I REMEMBER WE ALL CRIED LIKE THE MISSOURI
 WHEN MY UNCLE SOL'S COFFIN LURCHED BECAUSE     
 SOMEBODY PRESSED A BUTTON
 (AND DOWN WENT
 MY UNCLE
 SOL
 AND STARTED A WORM FARM)
           E. E. CUMMINGS
 Job cpu time:       0 days  0 hours 24 minutes 41.8 seconds.
 Elapsed time:       0 days  0 hours  0 minutes 27.1 seconds.
 File lengths (MBytes):  RWF=    184 Int=      0 D2E=      0 Chk=    162 Scr=      1
 Normal termination of Gaussian 16 at Wed Jul 17 21:23:43 2024.
