 Entering Gaussian System, Link 0=g16
 Input=JOBS/34_A.gjf
 Output=JOBS/34_A.log
 Initial command:
 /data/app/gaussian/C01-avx2//g16/l1.exe "/tmp/Gau-2096092.inp" -scrdir="/tmp/"
 Entering Link 1 = /data/app/gaussian/C01-avx2//g16/l1.exe PID=   2096093.
  
 Copyright (c) 1988-2019, Gaussian, Inc.  All Rights Reserved.
  
 This is part of the Gaussian(R) 16 program.  It is based on
 the Gaussian(R) 09 system (copyright 2009, Gaussian, Inc.),
 the Gaussian(R) 03 system (copyright 2003, Gaussian, Inc.),
 the Gaussian(R) 98 system (copyright 1998, Gaussian, Inc.),
 the Gaussian(R) 94 system (copyright 1995, Gaussian, Inc.),
 the Gaussian 92(TM) system (copyright 1992, Gaussian, Inc.),
 the Gaussian 90(TM) system (copyright 1990, Gaussian, Inc.),
 the Gaussian 88(TM) system (copyright 1988, Gaussian, Inc.),
 the Gaussian 86(TM) system (copyright 1986, Carnegie Mellon
 University), and the Gaussian 82(TM) system (copyright 1983,
 Carnegie Mellon University). Gaussian is a federally registered
 trademark of Gaussian, Inc.
  
 This software contains proprietary and confidential information,
 including trade secrets, belonging to Gaussian, Inc.
  
 This software is provided under written license and may be
 used, copied, transmitted, or stored only in accord with that
 written license.
  
 The following legend is applicable only to US Government
 contracts under FAR:
  
                    RESTRICTED RIGHTS LEGEND
  
 Use, reproduction and disclosure by the US Government is
 subject to restrictions as set forth in subparagraphs (a)
 and (c) of the Commercial Computer Software - Restricted
 Rights clause in FAR 52.227-19.
  
 Gaussian, Inc.
 340 Quinnipiac St., Bldg. 40, Wallingford CT 06492
  
  
 ---------------------------------------------------------------
 Warning -- This program may not be used in any manner that
 competes with the business of Gaussian, Inc. or will provide
 assistance to any competitor of Gaussian, Inc.  The licensee
 of this program is prohibited from giving any competitor of
 Gaussian, Inc. access to this program.  By using this program,
 the user acknowledges that Gaussian, Inc. is engaged in the
 business of creating and licensing software in the field of
 computational chemistry and represents and warrants to the
 licensee that it is not a competitor of Gaussian, Inc. and that
 it will not use this program in any manner prohibited above.
 ---------------------------------------------------------------
  

 Cite this work as:
 Gaussian 16, Revision C.01,
 M. J. Frisch, G. W. Trucks, H. B. Schlegel, G. E. Scuseria, 
 M. A. Robb, J. R. Cheeseman, G. Scalmani, V. Barone, 
 G. A. Petersson, H. Nakatsuji, X. Li, M. Caricato, A. V. Marenich, 
 J. Bloino, B. G. Janesko, R. Gomperts, B. Mennucci, H. P. Hratchian, 
 J. V. Ortiz, A. F. Izmaylov, J. L. Sonnenberg, D. Williams-Young, 
 F. Ding, F. Lipparini, F. Egidi, J. Goings, B. Peng, A. Petrone, 
 T. Henderson, D. Ranasinghe, V. G. Zakrzewski, J. Gao, N. Rega, 
 G. Zheng, W. Liang, M. Hada, M. Ehara, K. Toyota, R. Fukuda, 
 J. Hasegawa, M. Ishida, T. Nakajima, Y. Honda, O. Kitao, H. Nakai, 
 T. Vreven, K. Throssell, J. A. Montgomery, Jr., J. E. Peralta, 
 F. Ogliaro, M. J. Bearpark, J. J. Heyd, E. N. Brothers, K. N. Kudin, 
 V. N. Staroverov, T. A. Keith, R. Kobayashi, J. Normand, 
 K. Raghavachari, A. P. Rendell, J. C. Burant, S. S. Iyengar, 
 J. Tomasi, M. Cossi, J. M. Millam, M. Klene, C. Adamo, R. Cammi, 
 J. W. Ochterski, R. L. Martin, K. Morokuma, O. Farkas, 
 J. B. Foresman, and D. J. Fox, Gaussian, Inc., Wallingford CT, 2019.
 
 ******************************************
 Gaussian 16:  ES64L-G16RevC.01  3-Jul-2019
                17-Jul-2024 
 ******************************************
 %chk=a.chk
 %nprocshared=56
 Will use up to   56 processors via shared memory.
 %mem=96gb
 ----------------------------------------------------------------------
 # pbe1pbe em=gd3bj genecp g09default scf=(xqc,maxcycle=64) force guess
 =read nosymm
 ----------------------------------------------------------------------
 1/10=7,30=1,38=1,158=3,167=1/1,3;
 2/12=2,15=1,17=6,18=5,40=1/2;
 3/5=7,11=2,16=1,17=8,25=1,27=10,30=1,71=1,74=-13,75=-4,116=-2,124=41,158=3/1,2,3;
 4/5=1,60=-1/1;
 5/5=2,7=64,8=3,13=1,38=6,87=10/2,8;
 6/7=2,8=2,9=2,10=2,28=1,87=10/1;
 7/29=1,30=1,87=10/1,2,3,16;
 1/10=7,30=1,158=3,167=1/3;
 99//99;
 Using 2006 physical constants.
 ----------
 Title Card
 ----------
 Symbolic Z-matrix:
 Charge =  0 Multiplicity = 1
 6                     0.        0.81159   0.0001 
 6                    -1.28575   1.36098   0.00003 
 6                    -1.2465    2.75916  -0.00001 
 6                     0.        3.40734   0. 
 6                     1.2465    2.75916   0.00003 
 6                     1.28575   1.36098   0.00006 
 1                    -2.15868   3.34444  -0.00004 
 1                     0.        4.49514  -0.00001 
 1                     2.15869   3.34444   0.00004 
 6                     3.70053   0.58182  -0.00004 
 6                     1.92825  -0.91369   0.00014 
 6                     4.19837  -0.74299  -0.0001 
 6                     4.55923   1.66369  -0.00006 
 6                     5.5641   -0.99749  -0.0002 
 6                     5.94331   1.40483  -0.00017 
 1                     4.1896    2.68198   0. 
 6                     6.43015   0.10591  -0.00024 
 1                     5.94132  -2.01576  -0.00024 
 1                     6.63321   2.24319  -0.0002 
 1                     7.50275  -0.06714  -0.00033 
 6                    -3.70053   0.58181  -0.00005 
 6                    -1.92825  -0.9137    0.00011 
 6                    -4.19836  -0.743    -0.00007 
 6                    -4.55923   1.66369  -0.00006 
 6                    -5.56409  -0.9975   -0.0001 
 6                    -5.94331   1.40481  -0.0001 
 1                    -4.1896    2.68197  -0.00003 
 6                    -6.43014   0.10591  -0.00013 
 1                    -5.94131  -2.01576  -0.0001 
 1                    -6.63321   2.24318  -0.00011 
 1                    -7.50274  -0.06715  -0.00015 
 7                    -2.31192   0.46936   0.00002 
 7                    -3.13141  -1.60559  -0.00004 
 7                     2.31192   0.46936   0.00008 
 7                     3.13142  -1.60558  -0.00003 
 6                     3.21195  -3.03218   0.00001 
 1                     3.72729  -3.40827  -0.89302 
 1                     3.72681  -3.40829   0.89331 
 1                     2.19585  -3.43636  -0.00029 
 6                    -3.21194  -3.03219   0.00005 
 1                    -3.72673  -3.40828   0.8934 
 1                    -3.72735  -3.40831  -0.89293 
 1                    -2.19584  -3.43636  -0.00032 
 27                    0.       -1.27506   0.00013 
 

 GradGradGradGradGradGradGradGradGradGradGradGradGradGradGradGradGradGrad
 Berny optimization.
 Initialization pass.
 Trust Radius=3.00D-01 FncErr=1.00D-07 GrdErr=1.00D-07 EigMax=2.50D+02 EigMin=1.00D-04
 Number of steps in this run=      2 maximum allowed number of steps=      2.
 GradGradGradGradGradGradGradGradGradGradGradGradGradGradGradGradGradGrad

                          Input orientation:                          
 ---------------------------------------------------------------------
 Center     Atomic      Atomic             Coordinates (Angstroms)
 Number     Number       Type             X           Y           Z
 ---------------------------------------------------------------------
      1          6           0        0.000001    0.811593    0.000097
      2          6           0       -1.285748    1.360976    0.000026
      3          6           0       -1.246500    2.759161   -0.000015
      4          6           0        0.000003    3.407336    0.000001
      5          6           0        1.246503    2.759160    0.000030
      6          6           0        1.285750    1.360980    0.000061
      7          1           0       -2.158681    3.344441   -0.000042
      8          1           0        0.000002    4.495135   -0.000007
      9          1           0        2.158689    3.344439    0.000044
     10          6           0        3.700534    0.581821   -0.000036
     11          6           0        1.928252   -0.913695    0.000142
     12          6           0        4.198369   -0.742994   -0.000097
     13          6           0        4.559234    1.663691   -0.000065
     14          6           0        5.564099   -0.997486   -0.000198
     15          6           0        5.943305    1.404828   -0.000173
     16          1           0        4.189599    2.681978    0.000003
     17          6           0        6.430148    0.105914   -0.000244
     18          1           0        5.941323   -2.015758   -0.000236
     19          1           0        6.633211    2.243186   -0.000197
     20          1           0        7.502746   -0.067139   -0.000329
     21          6           0       -3.700527    0.581806   -0.000047
     22          6           0       -1.928248   -0.913698    0.000110
     23          6           0       -4.198360   -0.742996   -0.000074
     24          6           0       -4.559233    1.663693   -0.000059
     25          6           0       -5.564094   -0.997497   -0.000102
     26          6           0       -5.943307    1.404813   -0.000103
     27          1           0       -4.189601    2.681968   -0.000026
     28          6           0       -6.430142    0.105911   -0.000126
     29          1           0       -5.941315   -2.015764   -0.000098
     30          1           0       -6.633213    2.243177   -0.000110
     31          1           0       -7.502742   -0.067152   -0.000154
     32          7           0       -2.311918    0.469359    0.000019
     33          7           0       -3.131415   -1.605588   -0.000044
     34          7           0        2.311922    0.469356    0.000077
     35          7           0        3.131421   -1.605583   -0.000025
     36          6           0        3.211949   -3.032179    0.000010
     37          1           0        3.727294   -3.408273   -0.893017
     38          1           0        3.726806   -3.408294    0.893314
     39          1           0        2.195849   -3.436358   -0.000289
     40          6           0       -3.211942   -3.032185    0.000046
     41          1           0       -3.726731   -3.408277    0.893398
     42          1           0       -3.727352   -3.408307   -0.892931
     43          1           0       -2.195841   -3.436362   -0.000321
     44         27           0        0.000004   -1.275060    0.000126
 ---------------------------------------------------------------------
                    Distance matrix (angstroms):
                    1          2          3          4          5
     1  C    0.000000
     2  C    1.398203   0.000000
     3  C    2.312312   1.398737   0.000000
     4  C    2.595743   2.416764   1.404956   0.000000
     5  C    2.312310   2.892613   2.493002   1.404953   0.000000
     6  C    1.398204   2.571498   2.892611   2.416758   1.398731
     7  H    3.327946   2.167060   1.083802   2.159601   3.455117
     8  H    3.683542   3.387641   2.137141   1.087799   2.137142
     9  H    3.327948   3.974704   3.455121   2.159602   1.083806
    10  C    3.707659   5.046790   5.404994   4.655907   3.280713
    11  C    2.587425   3.937502   4.854784   4.731749   3.735591
    12  C    4.476945   5.873860   6.473924   5.903517   4.580240
    13  C    4.638175   5.852815   5.908180   4.881279   3.489160
    14  C    5.850807   7.244497   7.777959   7.096592   5.723113
    15  C    5.972837   7.229186   7.316250   6.271593   4.888166
    16  H    4.588144   5.632448   5.436647   4.251924   2.944109
    17  C    6.468753   7.817303   8.122232   7.228150   5.823220
    18  H    6.579759   7.977023   8.629291   8.044205   6.696356
    19  H    6.785936   7.967949   7.896586   6.734589   5.411364
    20  H    7.554028   8.903771   9.194415   8.268200   6.865023
    21  C    3.707656   2.537373   3.280721   4.655915   5.404995
    22  C    2.587427   2.363672   3.735596   4.731753   4.854784
    23  C    4.476939   3.593049   4.580238   5.903517   6.473918
    24  C    4.638178   3.287453   3.489162   4.881284   5.908182
    25  C    5.850809   4.885349   5.723120   7.096600   7.777962
    26  C    5.972841   4.657765   4.888175   6.271605   7.316257
    27  H    4.588144   3.190201   2.944113   4.251934   5.436651
    28  C    6.468750   5.295279   5.823219   7.228152   8.122229
    29  H    6.579756   5.751232   6.696357   8.044207   8.629288
    30  H    6.785938   5.419747   5.411369   6.734599   7.896591
    31  H    7.554029   6.378915   6.865028   8.268207   9.194418
    32  N    2.337113   1.359414   2.525532   3.738542   4.231494
    33  N    3.955822   3.493849   4.754360   5.910599   6.182004
    34  N    2.337114   3.706510   4.231498   3.738542   2.525533
    35  N    3.955822   5.320888   6.182005   5.910595   4.754355
    36  C    5.009111   6.287216   7.308720   7.196107   6.115765
    37  H    5.700669   6.976664   7.973288   7.819380   6.707390
    38  H    5.700382   6.976360   7.973037   7.819200   6.707261
    39  H    4.781928   5.927557   7.087611   7.187342   6.267830
    40  C    5.009113   4.796882   6.115771   7.196112   7.308721
    41  H    5.700336   5.431601   6.707237   7.819162   7.972982
    42  H    5.700721   5.431837   6.707428   7.819431   7.973346
    43  H    4.781930   4.882901   6.267835   7.187346   7.087610
    44  Co   2.086653   2.932889   4.222406   4.682396   4.222403
                    6          7          8          9         10
     6  C    0.000000
     7  H    3.974698   0.000000
     8  H    3.387636   2.446224   0.000000
     9  H    2.167056   4.317370   2.446228   0.000000
    10  C    2.537375   6.477845   5.385905   3.163755   0.000000
    11  C    2.363674   5.902097   5.742264   4.264364   2.318954
    12  C    3.593057   7.557725   6.712994   4.568085   1.415265
    13  C    3.287450   6.924977   5.366905   2.930449   1.381234
    14  C    4.885349   8.859665   7.818444   5.518073   2.442761
    15  C    4.657762   8.330923   6.698720   4.252695   2.389009
    16  H    3.190200   6.382752   4.565114   2.136224   2.156350
    17  C    5.295283   9.179109   7.785374   5.360355   2.770791
    18  H    5.751237   9.712971   8.814252   6.560491   3.430533
    19  H    5.419745   8.860595   7.005051   4.608048   3.370568
    20  H    6.378915  10.246075   8.780975   6.340174   3.857196
    21  C    5.046788   3.163770   5.385913   6.477851   7.401061
    22  C    3.937505   4.264369   5.742266   5.902100   5.824068
    23  C    5.873855   4.568088   6.712992   7.557724   8.009224
    24  C    5.852817   2.930454   5.366907   6.924983   8.330318
    25  C    7.244500   5.518085   7.818450   8.859671   9.398275
    26  C    7.229190   4.252710   6.698732   8.330935   9.678894
    27  H    5.632448   2.136236   4.565123   6.382762   8.164854
    28  C    7.817300   5.360359   7.785373   9.179111  10.141848
    29  H    7.977021   6.560496   8.814252   9.712972   9.985624
    30  H    7.967951   4.608060   7.005059   8.860604  10.466443
    31  H    8.903771   6.340185   8.780981  10.246082  11.222057
    32  N    3.706508   2.879163   4.642397   5.315300   6.013504
    33  N    5.320889   5.044699   6.857448   7.244857   7.173582
    34  N    1.359420   5.315299   4.642399   2.879163   1.393159
    35  N    3.493851   7.244854   6.857445   5.044693   2.260227
    36  C    4.796883   8.336963   8.183952   6.463019   3.646877
    37  H    5.431804   9.002291   8.783736   6.989792   4.088885
    38  H    5.431632   9.002026   8.783580   6.989730   4.088983
    39  H    4.882902   8.058608   8.229844   6.780899   4.290669
    40  C    6.287219   6.463027   8.183956   8.336966   7.800215
    41  H    6.976305   6.989722   8.783544   9.001968   8.478407
    42  H    6.976727   6.989820   8.783785   9.002358   8.478908
    43  H    5.927560   6.780905   8.229847   8.058610   7.135337
    44  Co   2.932891   5.098991   5.770195   5.098989   4.140281
                   11         12         13         14         15
    11  C    0.000000
    12  C    2.276526   0.000000
    13  C    3.683066   2.433588   0.000000
    14  C    3.636812   1.389238   2.844576   0.000000
    15  C    4.636399   2.767298   1.408071   2.432059   0.000000
    16  H    4.247652   3.424983   1.083300   3.927811   2.169469
    17  C    4.615915   2.387778   2.434541   1.402688   1.387153
    18  H    4.161644   2.158198   3.930460   1.085899   3.420587
    19  H    5.665910   3.853015   2.153416   3.412471   1.085733
    20  H    5.638407   3.372785   3.414680   2.150325   2.144421
    21  C    5.824060   8.009223   8.330313   9.398269   9.678887
    22  C    3.856501   6.128995   6.980713   7.492816   8.205907
    23  C    6.128990   8.396729   9.082267   9.765775  10.366606
    24  C    6.980716   9.082276   9.118467  10.467269  10.505728
    25  C    7.492815   9.765780  10.467267  11.128193  11.755484
    26  C    8.205908  10.366613  10.505730  11.755485  11.886612
    27  H    7.096261   9.060265   8.807893  10.424636  10.213073
    28  C    8.420353  10.662359  11.099236  12.044887  12.441438
    29  H    7.946360  10.219253  11.126540  11.550387  12.367079
    30  H    9.124940  11.235675  11.207437  12.620471  12.604429
    31  H    9.468912  11.720613  12.185527  13.099918  13.526378
    32  N    4.460032   6.622208   6.974178   8.011446   8.308057
    33  N    5.106755   7.380366   8.356689   8.716751   9.561022
    34  N    1.435281   2.242427   2.544964   3.567672   3.749940
    35  N    1.387921   1.372020   3.567464   2.507530   4.119377
    36  C    2.477065   2.492668   4.885322   3.110078   5.210311
    37  H    3.202687   2.850076   5.216733   3.159568   5.373436
    38  H    3.202433   2.850330   5.216904   3.160064   5.373763
    39  H    2.536817   3.356233   5.621039   4.158509   6.122132
    40  C    5.559640   7.755843   9.079780   9.008823  10.173771
    41  H    6.244973   8.408882   9.756042   9.640018  10.838545
    42  H    6.245521   8.409406   9.756530   9.640544  10.839045
    43  H    4.834460   6.938311   8.464135   8.134174   9.470102
    44  Co   1.961817   4.231946   5.424281   5.571014   6.519557
                   16         17         18         19         20
    16  H    0.000000
    17  C    3.414112   0.000000
    18  H    5.013707   2.177256   0.000000
    19  H    2.482696   2.146897   4.314779   0.000000
    20  H    4.305181   1.086468   2.497029   2.468541   0.000000
    21  C    8.164852  10.141847   9.985620  10.466438  11.222052
    22  C    7.096262   8.420356   7.946364   9.124939   9.468913
    23  C    9.060259  10.662356  10.219252  11.235667  11.720608
    24  C    8.807893  11.099242  11.126547  11.207436  12.185529
    25  C   10.424637  12.044890  11.550389  12.620471  13.099919
    26  C   10.213077  12.441444  12.367083  12.604431  13.526381
    27  H    8.379200  10.927722  11.167106  10.831703  12.011184
    28  C   10.927718  12.860290  12.552077  13.237037  13.933962
    29  H   11.167103  12.552076  11.882638  13.276195  13.584546
    30  H   10.831703  13.237042  13.276200  13.266424  14.323508
    31  H   12.011184  13.933965  13.584548  14.323506  15.005487
    32  N    6.867708   8.749618   8.619269   9.119309   9.829316
    33  N    8.484130   9.713533   9.082005  10.495760  10.744868
    34  N    2.901959   4.134232   4.398676   4.671190   5.218475
    35  N    4.416211   3.716292   2.839682   5.203418   4.634144
    36  C    5.797188   4.494935   2.912490   6.287648   5.215592
    37  H    6.172711   4.522386   2.763708   6.417201   5.119971
    38  H    6.172811   4.522849   2.764358   6.417537   5.120511
    39  H    6.434988   5.520596   4.005831   7.207455   6.286078
    40  C    9.350640  10.139900   9.209527  11.169448  11.117375
    41  H   10.027844  10.784727   9.808617  11.834947  11.750026
    42  H   10.028311  10.785242   9.809148  11.835439  11.750542
    43  H    8.843525   9.324989   8.260240  10.498068  10.267144
    44  Co   5.762886   6.576765   5.987312   7.508495   7.599355
                   21         22         23         24         25
    21  C    0.000000
    22  C    2.318944   0.000000
    23  C    1.415251   2.276521   0.000000
    24  C    1.381252   3.683073   2.433594   0.000000
    25  C    2.442760   3.636811   1.389245   2.844587   0.000000
    26  C    2.389017   4.636398   2.767295   1.408076   2.432056
    27  H    2.156357   4.247649   3.424974   1.083287   3.927810
    28  C    2.770789   4.615912   2.387780   2.434540   1.402693
    29  H    3.430524   4.161640   2.158201   3.930464   1.085893
    30  H    3.370579   5.665911   3.853016   2.153414   3.412474
    31  H    3.857199   5.638406   3.372789   3.414684   2.150324
    32  N    1.393154   1.435287   2.242424   2.544968   3.567676
    33  N    2.260216   1.387920   1.372020   3.567473   2.507530
    34  N    6.013500   4.460032   6.622203   6.974182   8.011447
    35  N    7.173575   5.106756   7.380362   8.356693   8.716751
    36  C    7.800205   5.559639   7.755839   9.079784   9.008821
    37  H    8.478835   6.245457   8.409342   9.756471   9.640489
    38  H    8.478459   6.245035   8.408937   9.756107   9.640071
    39  H    7.135327   4.834459   6.938308   8.464140   8.134173
    40  C    3.646868   2.477066   2.492671   4.885332   3.110077
    41  H    4.088972   3.202410   2.850342   5.216915   3.160080
    42  H    4.088882   3.202713   2.850075   5.216745   3.159552
    43  H    4.290659   2.536817   3.356234   5.621048   4.158509
    44  Co   4.140275   1.961820   4.231944   5.424289   5.571017
                   26         27         28         29         30
    26  C    0.000000
    27  H    2.169472   0.000000
    28  C    1.387140   3.414102   0.000000
    29  H    3.420578   5.013699   2.177258   0.000000
    30  H    1.085736   2.482696   2.146892   4.314776   0.000000
    31  H    2.144416   4.305179   1.086472   2.497026   2.468542
    32  N    3.749941   2.901953   4.134230   4.398676   4.671190
    33  N    4.119375   4.416207   3.716292   2.839680   5.203420
    34  N    8.308061   6.867710   8.749616   8.619266   9.119313
    35  N    9.561023   8.484129   9.713531   9.082003  10.495762
    36  C   10.173771   9.350637  10.139897   9.209524  11.169449
    37  H   10.838985  10.028244  10.785186   9.809096  11.835381
    38  H   10.838602  10.027903  10.784779   9.808664  11.835004
    39  H    9.470101   8.843522   9.324988   8.260238  10.498069
    40  C    5.210308   5.797185   4.494937   2.912489   6.287650
    41  H    5.373769   6.172806   4.522867   2.764382   6.417548
    42  H    5.373428   6.172714   4.522378   2.763686   6.417197
    43  H    6.122130   6.434985   5.520598   4.005830   7.207456
    44  Co   6.519560   5.762886   6.576766   5.987313   7.508499
                   31         32         33         34         35
    31  H    0.000000
    32  N    5.218476   0.000000
    33  N    4.634143   2.230914   0.000000
    34  N    9.829317   4.623840   5.825402   0.000000
    35  N   10.744868   5.825403   6.262835   2.230908   0.000000
    36  C   11.117373   6.540174   6.501801   3.615356   1.428867
    37  H   11.750489   7.232262   7.147653   4.223375   2.098139
    38  H   11.750075   7.231899   7.147239   4.223262   2.098167
    39  H   10.267143   5.964444   5.633069   3.907439   2.055974
    40  C    5.215591   3.615363   1.428868   6.540173   6.501803
    41  H    5.120528   4.223255   2.098173   7.231833   7.147179
    42  H    5.119954   4.223399   2.098138   7.232328   7.147717
    43  H    6.286077   3.907445   2.055975   5.964442   5.633070
    44  Co   7.599358   2.896201   3.148814   2.896196   3.148812
                   36         37         38         39         40
    36  C    0.000000
    37  H    1.097508   0.000000
    38  H    1.097512   1.786331   0.000000
    39  H    1.093535   1.772872   1.772891   0.000000
    40  C    6.423890   7.006567   7.006112   5.422874   0.000000
    41  H    7.006060   7.665101   7.453538   5.989694   1.097512
    42  H    7.006619   7.454646   7.665191   5.990151   1.097508
    43  H    5.422874   5.990094   5.989752   4.391691   1.093535
    44  Co   3.661155   4.386455   4.386061   3.081063   3.661159
                   41         42         43         44
    41  H    0.000000
    42  H    1.786330   0.000000
    43  H    1.772892   1.772869   0.000000
    44  Co   4.386013   4.386511   3.081066   0.000000
 Symmetry turned off by external request.
 Stoichiometry    C22H17CoN4
 Framework group  C1[X(C22H17CoN4)]
 Deg. of freedom   126
 Full point group                 C1      NOp   1
 Rotational constants (GHZ):           0.4602571           0.0999014           0.0821704
 General basis read from cards:  (5D, 7F)
 ======================================================================================================
                                       Pseudopotential Parameters
 ======================================================================================================
  Center     Atomic      Valence      Angular      Power
  Number     Number     Electrons     Momentum     of R      Exponent        Coefficient   SO-Coeffient
 ======================================================================================================
    1          6
                                   No pseudopotential on this center.
    2          6
                                   No pseudopotential on this center.
    3          6
                                   No pseudopotential on this center.
    4          6
                                   No pseudopotential on this center.
    5          6
                                   No pseudopotential on this center.
    6          6
                                   No pseudopotential on this center.
    7          1
                                   No pseudopotential on this center.
    8          1
                                   No pseudopotential on this center.
    9          1
                                   No pseudopotential on this center.
   10          6
                                   No pseudopotential on this center.
   11          6
                                   No pseudopotential on this center.
   12          6
                                   No pseudopotential on this center.
   13          6
                                   No pseudopotential on this center.
   14          6
                                   No pseudopotential on this center.
   15          6
                                   No pseudopotential on this center.
   16          1
                                   No pseudopotential on this center.
   17          6
                                   No pseudopotential on this center.
   18          1
                                   No pseudopotential on this center.
   19          1
                                   No pseudopotential on this center.
   20          1
                                   No pseudopotential on this center.
   21          6
                                   No pseudopotential on this center.
   22          6
                                   No pseudopotential on this center.
   23          6
                                   No pseudopotential on this center.
   24          6
                                   No pseudopotential on this center.
   25          6
                                   No pseudopotential on this center.
   26          6
                                   No pseudopotential on this center.
   27          1
                                   No pseudopotential on this center.
   28          6
                                   No pseudopotential on this center.
   29          1
                                   No pseudopotential on this center.
   30          1
                                   No pseudopotential on this center.
   31          1
                                   No pseudopotential on this center.
   32          7
                                   No pseudopotential on this center.
   33          7
                                   No pseudopotential on this center.
   34          7
                                   No pseudopotential on this center.
   35          7
                                   No pseudopotential on this center.
   36          6
                                   No pseudopotential on this center.
   37          1
                                   No pseudopotential on this center.
   38          1
                                   No pseudopotential on this center.
   39          1
                                   No pseudopotential on this center.
   40          6
                                   No pseudopotential on this center.
   41          1
                                   No pseudopotential on this center.
   42          1
                                   No pseudopotential on this center.
   43          1
                                   No pseudopotential on this center.
   44         27           17
                                      F and up 
                                                     2        1.0000000        0.00000000    0.00000000
                                      S - F
                                                     2       23.6600000      283.96056600    0.00000000
                                                     2       10.6100000       47.15684600    0.00000000
                                      P - F
                                                     2       25.0400000      182.21223600    0.00000000
                                                     2       10.4400000       35.23335200    0.00000000
                                      D - F
                                                     2       29.5400000      -26.47533300    0.00000000
                                                     2       10.1800000       -1.82578700    0.00000000
 ======================================================================================================
   441 basis functions,   871 primitive gaussians,   473 cartesian basis functions
    97 alpha electrons       97 beta electrons
       nuclear repulsion energy      2479.3855098142 Hartrees.
 NAtoms=   44 NActive=   44 NUniq=   44 SFac= 1.00D+00 NAtFMM=   60 NAOKFM=F Big=F
 Integral buffers will be    131072 words long.
 Raffenetti 2 integral format.
 Two-electron integral symmetry is turned off.
 Nuclear repulsion after empirical dispersion term =     2479.3264881546 Hartrees.
 One-electron integrals computed using PRISM.
   1 Symmetry operations used in ECPInt.
 ECPInt:  NShTT=   11781 NPrTT=   71406 LenC2=    9510 LenP2D=   31986.
 LDataN:  DoStor=T MaxTD1= 6 Len=  172
 NBasis=   441 RedAO= T EigKep=  3.23D-04  NBF=   441
 NBsUse=   441 1.00D-06 EigRej= -1.00D+00 NBFU=   441
 Initial guess from the checkpoint file:  "a.chk"
 B after Tr=     0.000000   -0.001269    0.000002
         Rot=    1.000000    0.000000    0.000000    0.000000 Ang=   0.00 deg.
 Initial guess <Sx>= 0.0000 <Sy>= 0.0000 <Sz>= 0.0000 <S**2>= 0.0000 S= 0.0000
 Requested convergence on RMS density matrix=1.00D-08 within  64 cycles.
 Requested convergence on MAX density matrix=1.00D-06.
 Requested convergence on             energy=1.00D-06.
 No special actions if energy rises.
 SCF Done:  E(UPBE1PBE) =  -1212.11056764     A.U. after   15 cycles
            NFock= 15  Conv=0.38D-08     -V/T= 2.0553
 <Sx>= 0.0000 <Sy>= 0.0000 <Sz>= 0.0000 <S**2>= 0.0000 S= 0.0000
 <L.S>=  0.00000000000    
 Annihilation of the first spin contaminant:
 S**2 before annihilation     0.0000,   after     0.0000
 QCSCF skips out because SCF is already converged.

 **********************************************************************

            Population analysis using the SCF Density.

 **********************************************************************

 Alpha  occ. eigenvalues --  -14.45822 -14.45822 -14.45328 -14.45327 -10.28451
 Alpha  occ. eigenvalues --  -10.28451 -10.27716 -10.27716 -10.27496 -10.27496
 Alpha  occ. eigenvalues --  -10.27291 -10.27290 -10.25401 -10.25400 -10.24186
 Alpha  occ. eigenvalues --  -10.24186 -10.23979 -10.23979 -10.23512 -10.23511
 Alpha  occ. eigenvalues --  -10.23458 -10.23457 -10.21605 -10.21602 -10.21241
 Alpha  occ. eigenvalues --  -10.19240  -3.83055  -2.34807  -2.34767  -2.30938
 Alpha  occ. eigenvalues --   -1.05839  -1.05777  -0.97010  -0.96682  -0.88184
 Alpha  occ. eigenvalues --   -0.87937  -0.84993  -0.80299  -0.78778  -0.77915
 Alpha  occ. eigenvalues --   -0.77807  -0.75570  -0.74999  -0.72985  -0.71816
 Alpha  occ. eigenvalues --   -0.66521  -0.65179  -0.64555  -0.64106  -0.62583
 Alpha  occ. eigenvalues --   -0.61396  -0.58930  -0.57207  -0.56643  -0.54121
 Alpha  occ. eigenvalues --   -0.53214  -0.52032  -0.49656  -0.49599  -0.49055
 Alpha  occ. eigenvalues --   -0.48293  -0.47865  -0.47495  -0.46605  -0.46136
 Alpha  occ. eigenvalues --   -0.45780  -0.45372  -0.45006  -0.44544  -0.44018
 Alpha  occ. eigenvalues --   -0.42424  -0.41912  -0.41123  -0.38539  -0.38404
 Alpha  occ. eigenvalues --   -0.38349  -0.37517  -0.36858  -0.36802  -0.36707
 Alpha  occ. eigenvalues --   -0.34950  -0.34659  -0.34453  -0.33881  -0.31634
 Alpha  occ. eigenvalues --   -0.29043  -0.26683  -0.25924  -0.24733  -0.24433
 Alpha  occ. eigenvalues --   -0.21383  -0.21336  -0.20444  -0.20084  -0.16470
 Alpha  occ. eigenvalues --   -0.15263  -0.14785
 Alpha virt. eigenvalues --   -0.04472  -0.02561  -0.00744  -0.00138   0.00859
 Alpha virt. eigenvalues --    0.01307   0.01985   0.03217   0.05285   0.05938
 Alpha virt. eigenvalues --    0.06076   0.07275   0.08809   0.09262   0.10070
 Alpha virt. eigenvalues --    0.10310   0.12588   0.13138   0.14146   0.14245
 Alpha virt. eigenvalues --    0.15256   0.15515   0.15889   0.15991   0.16504
 Alpha virt. eigenvalues --    0.16787   0.16942   0.17609   0.17835   0.18250
 Alpha virt. eigenvalues --    0.19132   0.19198   0.19705   0.20295   0.22016
 Alpha virt. eigenvalues --    0.22159   0.22496   0.22649   0.22808   0.23717
 Alpha virt. eigenvalues --    0.25774   0.25820   0.26425   0.27621   0.27675
 Alpha virt. eigenvalues --    0.28259   0.29256   0.29476   0.30387   0.30868
 Alpha virt. eigenvalues --    0.31598   0.33192   0.33583   0.34452   0.34518
 Alpha virt. eigenvalues --    0.36230   0.37755   0.38041   0.39475   0.39577
 Alpha virt. eigenvalues --    0.41601   0.43104   0.44581   0.44966   0.46095
 Alpha virt. eigenvalues --    0.47273   0.47704   0.50139   0.51190   0.51772
 Alpha virt. eigenvalues --    0.52331   0.53534   0.53740   0.55926   0.55982
 Alpha virt. eigenvalues --    0.56815   0.56864   0.56935   0.58161   0.58331
 Alpha virt. eigenvalues --    0.58549   0.59016   0.59233   0.60083   0.61427
 Alpha virt. eigenvalues --    0.61525   0.61865   0.63117   0.63128   0.63156
 Alpha virt. eigenvalues --    0.63312   0.63321   0.63384   0.63862   0.64501
 Alpha virt. eigenvalues --    0.65255   0.65772   0.66311   0.66702   0.67050
 Alpha virt. eigenvalues --    0.67601   0.68086   0.68393   0.69389   0.70888
 Alpha virt. eigenvalues --    0.72174   0.72603   0.73903   0.75741   0.76147
 Alpha virt. eigenvalues --    0.76328   0.76929   0.78217   0.79504   0.80050
 Alpha virt. eigenvalues --    0.80966   0.82013   0.82614   0.83077   0.83745
 Alpha virt. eigenvalues --    0.84202   0.84320   0.84993   0.86474   0.86714
 Alpha virt. eigenvalues --    0.86992   0.87232   0.87453   0.89703   0.90101
 Alpha virt. eigenvalues --    0.90455   0.91333   0.91685   0.91918   0.92817
 Alpha virt. eigenvalues --    0.93299   0.93548   0.95330   0.95390   0.95861
 Alpha virt. eigenvalues --    0.95901   0.97159   0.97785   0.97848   0.98203
 Alpha virt. eigenvalues --    0.98354   1.00034   1.00163   1.01531   1.02192
 Alpha virt. eigenvalues --    1.02838   1.03024   1.03855   1.06273   1.07386
 Alpha virt. eigenvalues --    1.08910   1.09585   1.10923   1.11334   1.13715
 Alpha virt. eigenvalues --    1.14822   1.15859   1.16103   1.16604   1.18328
 Alpha virt. eigenvalues --    1.18369   1.19037   1.20027   1.23634   1.24057
 Alpha virt. eigenvalues --    1.24437   1.24902   1.26881   1.27308   1.27331
 Alpha virt. eigenvalues --    1.29102   1.29258   1.29941   1.32474   1.33295
 Alpha virt. eigenvalues --    1.33755   1.36203   1.36349   1.37215   1.38855
 Alpha virt. eigenvalues --    1.40140   1.41629   1.42674   1.42688   1.43480
 Alpha virt. eigenvalues --    1.44950   1.45328   1.45364   1.46038   1.47727
 Alpha virt. eigenvalues --    1.47896   1.49225   1.49918   1.49927   1.50920
 Alpha virt. eigenvalues --    1.51184   1.51290   1.53112   1.54248   1.56872
 Alpha virt. eigenvalues --    1.56945   1.58843   1.62313   1.65262   1.65601
 Alpha virt. eigenvalues --    1.65730   1.70317   1.72416   1.72669   1.76879
 Alpha virt. eigenvalues --    1.77255   1.78412   1.79663   1.79769   1.81922
 Alpha virt. eigenvalues --    1.82619   1.85425   1.86644   1.86698   1.87359
 Alpha virt. eigenvalues --    1.88108   1.88594   1.89738   1.91021   1.91560
 Alpha virt. eigenvalues --    1.92972   1.94849   1.94914   1.96342   1.96778
 Alpha virt. eigenvalues --    1.97789   1.98085   1.98455   1.98855   1.98878
 Alpha virt. eigenvalues --    1.99478   2.00117   2.01147   2.02259   2.03484
 Alpha virt. eigenvalues --    2.06004   2.06526   2.07136   2.09709   2.10165
 Alpha virt. eigenvalues --    2.12145   2.13017   2.14223   2.14958   2.15071
 Alpha virt. eigenvalues --    2.16113   2.16527   2.16550   2.18936   2.19632
 Alpha virt. eigenvalues --    2.20393   2.21402   2.21536   2.22289   2.23560
 Alpha virt. eigenvalues --    2.24730   2.24883   2.26037   2.27081   2.27548
 Alpha virt. eigenvalues --    2.27694   2.27937   2.28091   2.28349   2.28651
 Alpha virt. eigenvalues --    2.32722   2.34396   2.38872   2.39282   2.40397
 Alpha virt. eigenvalues --    2.40462   2.44076   2.44302   2.45260   2.46547
 Alpha virt. eigenvalues --    2.51270   2.51321   2.52153   2.57094   2.58436
 Alpha virt. eigenvalues --    2.58809   2.59430   2.59725   2.60471   2.62228
 Alpha virt. eigenvalues --    2.63800   2.64940   2.66432   2.67584   2.69078
 Alpha virt. eigenvalues --    2.69342   2.69506   2.71963   2.72980   2.74643
 Alpha virt. eigenvalues --    2.74972   2.75017   2.77157   2.78406   2.79157
 Alpha virt. eigenvalues --    2.79890   2.83031   2.84950   2.88083   2.88396
 Alpha virt. eigenvalues --    2.93485   2.93545   2.97197   2.98621   2.99712
 Alpha virt. eigenvalues --    3.00648   3.05994   3.06654   3.14568   3.18415
 Alpha virt. eigenvalues --    3.19185   3.29140   3.39409   3.46372   3.46665
 Alpha virt. eigenvalues --    3.51995   3.52213   3.60508   5.66774   5.67104
 Alpha virt. eigenvalues --    5.67379   5.68248   5.68857   5.69743   5.71743
 Alpha virt. eigenvalues --   45.82233  45.95962  46.01519  63.11549
  Beta  occ. eigenvalues --  -14.45822 -14.45822 -14.45328 -14.45327 -10.28451
  Beta  occ. eigenvalues --  -10.28451 -10.27716 -10.27716 -10.27496 -10.27496
  Beta  occ. eigenvalues --  -10.27291 -10.27290 -10.25401 -10.25400 -10.24186
  Beta  occ. eigenvalues --  -10.24186 -10.23979 -10.23979 -10.23512 -10.23511
  Beta  occ. eigenvalues --  -10.23458 -10.23457 -10.21605 -10.21602 -10.21241
  Beta  occ. eigenvalues --  -10.19240  -3.83055  -2.34807  -2.34767  -2.30938
  Beta  occ. eigenvalues --   -1.05839  -1.05777  -0.97010  -0.96682  -0.88184
  Beta  occ. eigenvalues --   -0.87937  -0.84993  -0.80299  -0.78778  -0.77915
  Beta  occ. eigenvalues --   -0.77807  -0.75570  -0.74999  -0.72985  -0.71816
  Beta  occ. eigenvalues --   -0.66521  -0.65179  -0.64555  -0.64106  -0.62583
  Beta  occ. eigenvalues --   -0.61396  -0.58930  -0.57207  -0.56643  -0.54121
  Beta  occ. eigenvalues --   -0.53214  -0.52032  -0.49656  -0.49599  -0.49055
  Beta  occ. eigenvalues --   -0.48293  -0.47865  -0.47495  -0.46605  -0.46136
  Beta  occ. eigenvalues --   -0.45780  -0.45372  -0.45006  -0.44544  -0.44018
  Beta  occ. eigenvalues --   -0.42424  -0.41912  -0.41123  -0.38539  -0.38404
  Beta  occ. eigenvalues --   -0.38349  -0.37517  -0.36858  -0.36802  -0.36707
  Beta  occ. eigenvalues --   -0.34950  -0.34659  -0.34453  -0.33881  -0.31634
  Beta  occ. eigenvalues --   -0.29043  -0.26683  -0.25924  -0.24733  -0.24433
  Beta  occ. eigenvalues --   -0.21383  -0.21336  -0.20444  -0.20084  -0.16470
  Beta  occ. eigenvalues --   -0.15263  -0.14785
  Beta virt. eigenvalues --   -0.04472  -0.02561  -0.00744  -0.00138   0.00859
  Beta virt. eigenvalues --    0.01307   0.01985   0.03217   0.05285   0.05938
  Beta virt. eigenvalues --    0.06076   0.07275   0.08809   0.09262   0.10070
  Beta virt. eigenvalues --    0.10310   0.12588   0.13138   0.14146   0.14245
  Beta virt. eigenvalues --    0.15256   0.15515   0.15889   0.15991   0.16504
  Beta virt. eigenvalues --    0.16787   0.16942   0.17609   0.17835   0.18250
  Beta virt. eigenvalues --    0.19132   0.19198   0.19705   0.20295   0.22016
  Beta virt. eigenvalues --    0.22159   0.22496   0.22649   0.22808   0.23717
  Beta virt. eigenvalues --    0.25774   0.25820   0.26425   0.27621   0.27675
  Beta virt. eigenvalues --    0.28259   0.29256   0.29476   0.30387   0.30868
  Beta virt. eigenvalues --    0.31598   0.33192   0.33583   0.34452   0.34518
  Beta virt. eigenvalues --    0.36230   0.37755   0.38041   0.39475   0.39577
  Beta virt. eigenvalues --    0.41601   0.43104   0.44581   0.44966   0.46095
  Beta virt. eigenvalues --    0.47273   0.47704   0.50139   0.51190   0.51772
  Beta virt. eigenvalues --    0.52331   0.53534   0.53740   0.55926   0.55982
  Beta virt. eigenvalues --    0.56815   0.56864   0.56935   0.58161   0.58331
  Beta virt. eigenvalues --    0.58549   0.59016   0.59233   0.60083   0.61427
  Beta virt. eigenvalues --    0.61525   0.61865   0.63117   0.63128   0.63156
  Beta virt. eigenvalues --    0.63312   0.63321   0.63384   0.63862   0.64501
  Beta virt. eigenvalues --    0.65255   0.65772   0.66311   0.66702   0.67050
  Beta virt. eigenvalues --    0.67601   0.68086   0.68393   0.69389   0.70888
  Beta virt. eigenvalues --    0.72174   0.72603   0.73903   0.75741   0.76147
  Beta virt. eigenvalues --    0.76328   0.76929   0.78217   0.79504   0.80050
  Beta virt. eigenvalues --    0.80966   0.82013   0.82614   0.83077   0.83745
  Beta virt. eigenvalues --    0.84202   0.84320   0.84993   0.86474   0.86713
  Beta virt. eigenvalues --    0.86992   0.87232   0.87453   0.89703   0.90101
  Beta virt. eigenvalues --    0.90455   0.91333   0.91685   0.91918   0.92817
  Beta virt. eigenvalues --    0.93299   0.93548   0.95330   0.95390   0.95861
  Beta virt. eigenvalues --    0.95901   0.97159   0.97785   0.97848   0.98203
  Beta virt. eigenvalues --    0.98354   1.00034   1.00163   1.01531   1.02192
  Beta virt. eigenvalues --    1.02838   1.03024   1.03855   1.06273   1.07386
  Beta virt. eigenvalues --    1.08910   1.09585   1.10923   1.11334   1.13715
  Beta virt. eigenvalues --    1.14822   1.15859   1.16103   1.16604   1.18328
  Beta virt. eigenvalues --    1.18369   1.19037   1.20027   1.23634   1.24057
  Beta virt. eigenvalues --    1.24437   1.24902   1.26881   1.27308   1.27331
  Beta virt. eigenvalues --    1.29102   1.29258   1.29941   1.32474   1.33295
  Beta virt. eigenvalues --    1.33755   1.36203   1.36349   1.37215   1.38855
  Beta virt. eigenvalues --    1.40140   1.41629   1.42674   1.42688   1.43480
  Beta virt. eigenvalues --    1.44950   1.45328   1.45364   1.46038   1.47727
  Beta virt. eigenvalues --    1.47896   1.49225   1.49918   1.49927   1.50920
  Beta virt. eigenvalues --    1.51184   1.51290   1.53112   1.54248   1.56872
  Beta virt. eigenvalues --    1.56945   1.58843   1.62313   1.65262   1.65601
  Beta virt. eigenvalues --    1.65730   1.70317   1.72416   1.72669   1.76879
  Beta virt. eigenvalues --    1.77255   1.78412   1.79663   1.79769   1.81922
  Beta virt. eigenvalues --    1.82619   1.85425   1.86644   1.86698   1.87359
  Beta virt. eigenvalues --    1.88108   1.88594   1.89738   1.91021   1.91560
  Beta virt. eigenvalues --    1.92972   1.94849   1.94914   1.96342   1.96778
  Beta virt. eigenvalues --    1.97789   1.98085   1.98455   1.98855   1.98878
  Beta virt. eigenvalues --    1.99478   2.00117   2.01147   2.02259   2.03484
  Beta virt. eigenvalues --    2.06004   2.06526   2.07136   2.09709   2.10165
  Beta virt. eigenvalues --    2.12145   2.13017   2.14223   2.14958   2.15071
  Beta virt. eigenvalues --    2.16113   2.16527   2.16550   2.18936   2.19632
  Beta virt. eigenvalues --    2.20393   2.21402   2.21536   2.22289   2.23560
  Beta virt. eigenvalues --    2.24730   2.24883   2.26037   2.27081   2.27548
  Beta virt. eigenvalues --    2.27694   2.27937   2.28091   2.28349   2.28651
  Beta virt. eigenvalues --    2.32722   2.34396   2.38872   2.39282   2.40397
  Beta virt. eigenvalues --    2.40462   2.44076   2.44302   2.45260   2.46547
  Beta virt. eigenvalues --    2.51270   2.51321   2.52153   2.57094   2.58436
  Beta virt. eigenvalues --    2.58809   2.59430   2.59725   2.60471   2.62228
  Beta virt. eigenvalues --    2.63800   2.64940   2.66432   2.67584   2.69078
  Beta virt. eigenvalues --    2.69342   2.69506   2.71963   2.72980   2.74643
  Beta virt. eigenvalues --    2.74972   2.75017   2.77157   2.78406   2.79157
  Beta virt. eigenvalues --    2.79890   2.83031   2.84950   2.88083   2.88396
  Beta virt. eigenvalues --    2.93485   2.93545   2.97197   2.98621   2.99712
  Beta virt. eigenvalues --    3.00648   3.05994   3.06654   3.14568   3.18415
  Beta virt. eigenvalues --    3.19185   3.29140   3.39409   3.46372   3.46665
  Beta virt. eigenvalues --    3.51995   3.52213   3.60508   5.66774   5.67104
  Beta virt. eigenvalues --    5.67379   5.68248   5.68857   5.69743   5.71743
  Beta virt. eigenvalues --   45.82233  45.95962  46.01519  63.11549
          Condensed to atoms (all electrons):
               1          2          3          4          5          6
     1  C    5.090871   0.526803  -0.060124  -0.059237  -0.060125   0.526804
     2  C    0.526803   4.618636   0.518157  -0.019429  -0.040531  -0.018940
     3  C   -0.060124   0.518157   5.053794   0.536918  -0.030955  -0.040531
     4  C   -0.059237  -0.019429   0.536918   4.909194   0.536918  -0.019429
     5  C   -0.060125  -0.040531  -0.030955   0.536918   5.053795   0.518159
     6  C    0.526804  -0.018940  -0.040531  -0.019429   0.518159   4.618630
     7  H    0.006372  -0.039676   0.339122  -0.040424   0.003939   0.000932
     8  H    0.001528   0.002657  -0.035853   0.365296  -0.035852   0.002657
     9  H    0.006372   0.000932   0.003939  -0.040424   0.339121  -0.039676
    10  C    0.005555  -0.000044   0.000004   0.000113  -0.004423  -0.044223
    11  C    0.002998   0.001683  -0.000028   0.000024   0.002967  -0.059545
    12  C   -0.000610   0.000002  -0.000000   0.000001   0.000104   0.006793
    13  C    0.000134   0.000000  -0.000001   0.000043   0.001925  -0.003164
    14  C    0.000002  -0.000000   0.000000  -0.000000   0.000002  -0.000026
    15  C    0.000002  -0.000000   0.000000  -0.000001   0.000075   0.000055
    16  H   -0.000023   0.000001   0.000001   0.000079   0.000159   0.000802
    17  C    0.000000   0.000000   0.000000   0.000000  -0.000001  -0.000003
    18  H   -0.000000   0.000000   0.000000   0.000000  -0.000000   0.000002
    19  H   -0.000000   0.000000  -0.000000   0.000000   0.000001  -0.000002
    20  H    0.000000  -0.000000   0.000000  -0.000000  -0.000000  -0.000000
    21  C    0.005555  -0.044224  -0.004423   0.000113   0.000004  -0.000044
    22  C    0.002998  -0.059545   0.002967   0.000024  -0.000028   0.001683
    23  C   -0.000610   0.006793   0.000104   0.000001  -0.000000   0.000002
    24  C    0.000134  -0.003164   0.001925   0.000043  -0.000001   0.000000
    25  C    0.000002  -0.000026   0.000002  -0.000000   0.000000  -0.000000
    26  C    0.000002   0.000055   0.000075  -0.000001   0.000000  -0.000000
    27  H   -0.000023   0.000802   0.000160   0.000079   0.000001   0.000001
    28  C    0.000000  -0.000003  -0.000001   0.000000   0.000000   0.000000
    29  H   -0.000000   0.000002  -0.000000   0.000000   0.000000   0.000000
    30  H   -0.000000  -0.000002   0.000001   0.000000  -0.000000   0.000000
    31  H    0.000000  -0.000000  -0.000000  -0.000000   0.000000  -0.000000
    32  N   -0.042061   0.244519  -0.077174   0.004527   0.000003   0.006208
    33  N    0.001630   0.006254  -0.000139   0.000001   0.000000  -0.000036
    34  N   -0.042061   0.006208   0.000003   0.004527  -0.077175   0.244519
    35  N    0.001630  -0.000036   0.000000   0.000001  -0.000139   0.006254
    36  C   -0.000008   0.000000   0.000000  -0.000000   0.000002  -0.000028
    37  H   -0.000001  -0.000000   0.000000   0.000000  -0.000000   0.000003
    38  H   -0.000001  -0.000000   0.000000   0.000000  -0.000000   0.000003
    39  H   -0.000012   0.000001   0.000000  -0.000000   0.000000  -0.000007
    40  C   -0.000008  -0.000028   0.000002  -0.000000   0.000000   0.000000
    41  H   -0.000001   0.000003  -0.000000   0.000000   0.000000  -0.000000
    42  H   -0.000001   0.000003  -0.000000   0.000000   0.000000  -0.000000
    43  H   -0.000012  -0.000007   0.000000  -0.000000   0.000000   0.000001
    44  Co   0.254427  -0.054254   0.006895   0.002282   0.006895  -0.054254
               7          8          9         10         11         12
     1  C    0.006372   0.001528   0.006372   0.005555   0.002998  -0.000610
     2  C   -0.039676   0.002657   0.000932  -0.000044   0.001683   0.000002
     3  C    0.339122  -0.035853   0.003939   0.000004  -0.000028  -0.000000
     4  C   -0.040424   0.365296  -0.040424   0.000113   0.000024   0.000001
     5  C    0.003939  -0.035852   0.339121  -0.004423   0.002967   0.000104
     6  C    0.000932   0.002657  -0.039676  -0.044223  -0.059545   0.006793
     7  H    0.574869  -0.004010  -0.000087  -0.000000  -0.000001   0.000000
     8  H   -0.004010   0.550369  -0.004010  -0.000002   0.000001  -0.000000
     9  H   -0.000087  -0.004010   0.574869   0.000408  -0.000176  -0.000042
    10  C   -0.000000  -0.000002   0.000408   4.640808  -0.066571   0.515989
    11  C   -0.000001   0.000001  -0.000176  -0.066571   4.789306  -0.053437
    12  C    0.000000  -0.000000  -0.000042   0.515989  -0.053437   4.661763
    13  C   -0.000000   0.000002  -0.000387   0.536170   0.004301  -0.055465
    14  C   -0.000000   0.000000  -0.000000  -0.048866   0.004671   0.532454
    15  C   -0.000000   0.000000   0.000109  -0.006575  -0.000053  -0.037815
    16  H    0.000000  -0.000010   0.006414  -0.033113  -0.000151   0.003737
    17  C    0.000000  -0.000000   0.000002  -0.038892  -0.000055  -0.008782
    18  H    0.000000  -0.000000  -0.000000   0.003920  -0.000201  -0.037730
    19  H    0.000000   0.000000  -0.000008   0.001917   0.000003   0.000916
    20  H   -0.000000  -0.000000   0.000000   0.000883   0.000002   0.002294
    21  C    0.000408  -0.000002  -0.000000  -0.000000  -0.000006   0.000000
    22  C   -0.000176   0.000001  -0.000001  -0.000006  -0.011489  -0.000001
    23  C   -0.000042  -0.000000   0.000000   0.000000  -0.000001  -0.000000
    24  C   -0.000387   0.000002  -0.000000   0.000000   0.000000   0.000000
    25  C   -0.000000   0.000000  -0.000000  -0.000000   0.000000   0.000000
    26  C    0.000109   0.000000  -0.000000  -0.000000  -0.000000   0.000000
    27  H    0.006413  -0.000010   0.000000   0.000000   0.000000  -0.000000
    28  C    0.000002  -0.000000   0.000000   0.000000  -0.000000  -0.000000
    29  H   -0.000000  -0.000000   0.000000   0.000000   0.000000  -0.000000
    30  H   -0.000008   0.000000   0.000000   0.000000   0.000000  -0.000000
    31  H    0.000000  -0.000000  -0.000000   0.000000   0.000000   0.000000
    32  N   -0.003295  -0.000093   0.000009   0.000000   0.000236   0.000000
    33  N   -0.000000  -0.000000  -0.000000   0.000000   0.000025   0.000000
    34  N    0.000009  -0.000093  -0.003295   0.255737   0.350803  -0.041273
    35  N   -0.000000  -0.000000  -0.000000  -0.046735   0.301647   0.260242
    36  C   -0.000000   0.000000  -0.000000   0.005453  -0.045456  -0.048164
    37  H    0.000000  -0.000000   0.000000  -0.000129   0.000568  -0.001011
    38  H    0.000000  -0.000000   0.000000  -0.000129   0.000563  -0.001008
    39  H    0.000000   0.000000   0.000000   0.000012   0.000652   0.002668
    40  C   -0.000000   0.000000  -0.000000   0.000000   0.000013   0.000000
    41  H    0.000000  -0.000000   0.000000  -0.000000  -0.000000  -0.000000
    42  H    0.000000  -0.000000   0.000000  -0.000000  -0.000000  -0.000000
    43  H    0.000000   0.000000   0.000000  -0.000000  -0.000002  -0.000000
    44  Co  -0.000667   0.000125  -0.000667   0.007032   0.364141   0.005943
              13         14         15         16         17         18
     1  C    0.000134   0.000002   0.000002  -0.000023   0.000000  -0.000000
     2  C    0.000000  -0.000000  -0.000000   0.000001   0.000000   0.000000
     3  C   -0.000001   0.000000   0.000000   0.000001   0.000000   0.000000
     4  C    0.000043  -0.000000  -0.000001   0.000079   0.000000   0.000000
     5  C    0.001925   0.000002   0.000075   0.000159  -0.000001  -0.000000
     6  C   -0.003164  -0.000026   0.000055   0.000802  -0.000003   0.000002
     7  H   -0.000000  -0.000000  -0.000000   0.000000   0.000000   0.000000
     8  H    0.000002   0.000000   0.000000  -0.000010  -0.000000  -0.000000
     9  H   -0.000387  -0.000000   0.000109   0.006414   0.000002  -0.000000
    10  C    0.536170  -0.048866  -0.006575  -0.033113  -0.038892   0.003920
    11  C    0.004301   0.004671  -0.000053  -0.000151  -0.000055  -0.000201
    12  C   -0.055465   0.532454  -0.037815   0.003737  -0.008782  -0.037730
    13  C    5.020813  -0.044880   0.511342   0.355632  -0.036006   0.000275
    14  C   -0.044880   5.027351  -0.037261   0.000437   0.518437   0.362235
    15  C    0.511342  -0.037261   4.897446  -0.035670   0.554322   0.003852
    16  H    0.355632   0.000437  -0.035670   0.510216   0.003652   0.000013
    17  C   -0.036006   0.518437   0.554322   0.003652   4.888864  -0.035275
    18  H    0.000275   0.362235   0.003852   0.000013  -0.035275   0.532528
    19  H   -0.035338   0.003943   0.369010  -0.003900  -0.035961  -0.000145
    20  H    0.003974  -0.036597  -0.036274  -0.000145   0.368415  -0.004167
    21  C    0.000000  -0.000000  -0.000000   0.000000   0.000000   0.000000
    22  C    0.000000   0.000000  -0.000000   0.000000  -0.000000   0.000000
    23  C    0.000000   0.000000   0.000000  -0.000000  -0.000000  -0.000000
    24  C    0.000000  -0.000000   0.000000   0.000000   0.000000   0.000000
    25  C   -0.000000  -0.000000   0.000000  -0.000000  -0.000000   0.000000
    26  C    0.000000   0.000000  -0.000000  -0.000000  -0.000000   0.000000
    27  H    0.000000  -0.000000  -0.000000   0.000000   0.000000  -0.000000
    28  C    0.000000  -0.000000  -0.000000   0.000000   0.000000   0.000000
    29  H    0.000000   0.000000   0.000000  -0.000000   0.000000  -0.000000
    30  H   -0.000000  -0.000000   0.000000  -0.000000   0.000000   0.000000
    31  H   -0.000000   0.000000   0.000000  -0.000000   0.000000   0.000000
    32  N   -0.000000   0.000000  -0.000000   0.000000   0.000000  -0.000000
    33  N    0.000000  -0.000000   0.000000   0.000000   0.000000  -0.000000
    34  N   -0.075876   0.009303   0.005054  -0.004968  -0.000211  -0.000093
    35  N    0.009612  -0.081525  -0.000186  -0.000098   0.005339  -0.007242
    36  C   -0.000120  -0.002656   0.000009   0.000003  -0.000107   0.004215
    37  H   -0.000009   0.002462  -0.000001  -0.000000  -0.000004   0.000502
    38  H   -0.000009   0.002460  -0.000001  -0.000000  -0.000004   0.000500
    39  H    0.000005   0.000009  -0.000000  -0.000000   0.000001  -0.000032
    40  C    0.000000   0.000000  -0.000000   0.000000   0.000000  -0.000000
    41  H   -0.000000  -0.000000   0.000000  -0.000000   0.000000  -0.000000
    42  H   -0.000000  -0.000000   0.000000  -0.000000   0.000000  -0.000000
    43  H   -0.000000   0.000000  -0.000000   0.000000  -0.000000   0.000000
    44  Co  -0.001253  -0.001345   0.000165   0.000045   0.000150   0.000026
              19         20         21         22         23         24
     1  C   -0.000000   0.000000   0.005555   0.002998  -0.000610   0.000134
     2  C    0.000000  -0.000000  -0.044224  -0.059545   0.006793  -0.003164
     3  C   -0.000000   0.000000  -0.004423   0.002967   0.000104   0.001925
     4  C    0.000000  -0.000000   0.000113   0.000024   0.000001   0.000043
     5  C    0.000001  -0.000000   0.000004  -0.000028  -0.000000  -0.000001
     6  C   -0.000002  -0.000000  -0.000044   0.001683   0.000002   0.000000
     7  H    0.000000  -0.000000   0.000408  -0.000176  -0.000042  -0.000387
     8  H    0.000000  -0.000000  -0.000002   0.000001  -0.000000   0.000002
     9  H   -0.000008   0.000000  -0.000000  -0.000001   0.000000  -0.000000
    10  C    0.001917   0.000883  -0.000000  -0.000006   0.000000   0.000000
    11  C    0.000003   0.000002  -0.000006  -0.011489  -0.000001   0.000000
    12  C    0.000916   0.002294   0.000000  -0.000001  -0.000000   0.000000
    13  C   -0.035338   0.003974   0.000000   0.000000   0.000000   0.000000
    14  C    0.003943  -0.036597  -0.000000   0.000000   0.000000  -0.000000
    15  C    0.369010  -0.036274  -0.000000  -0.000000   0.000000   0.000000
    16  H   -0.003900  -0.000145   0.000000   0.000000  -0.000000   0.000000
    17  C   -0.035961   0.368415   0.000000  -0.000000  -0.000000   0.000000
    18  H   -0.000145  -0.004167   0.000000   0.000000  -0.000000   0.000000
    19  H    0.529890  -0.004526   0.000000   0.000000  -0.000000  -0.000000
    20  H   -0.004526   0.534726   0.000000   0.000000   0.000000  -0.000000
    21  C    0.000000   0.000000   4.640820  -0.066572   0.515991   0.536166
    22  C    0.000000   0.000000  -0.066572   4.789308  -0.053436   0.004301
    23  C   -0.000000   0.000000   0.515991  -0.053436   4.661760  -0.055464
    24  C   -0.000000  -0.000000   0.536166   0.004301  -0.055464   5.020804
    25  C   -0.000000   0.000000  -0.048866   0.004671   0.532453  -0.044878
    26  C    0.000000   0.000000  -0.006577  -0.000053  -0.037814   0.511345
    27  H   -0.000000  -0.000000  -0.033113  -0.000151   0.003737   0.355635
    28  C    0.000000   0.000000  -0.038892  -0.000055  -0.008783  -0.036007
    29  H    0.000000   0.000000   0.003920  -0.000201  -0.037730   0.000275
    30  H    0.000000   0.000000   0.001917   0.000003   0.000916  -0.035339
    31  H    0.000000   0.000000   0.000883   0.000002   0.002294   0.003974
    32  N    0.000000   0.000000   0.255739   0.350802  -0.041274  -0.075874
    33  N   -0.000000  -0.000000  -0.046735   0.301648   0.260241   0.009611
    34  N   -0.000088   0.000004   0.000000   0.000236   0.000000  -0.000000
    35  N    0.000004  -0.000098   0.000000   0.000025   0.000000   0.000000
    36  C   -0.000000  -0.000002   0.000000   0.000013   0.000000   0.000000
    37  H   -0.000000  -0.000000  -0.000000  -0.000000  -0.000000  -0.000000
    38  H   -0.000000  -0.000000  -0.000000  -0.000000  -0.000000  -0.000000
    39  H   -0.000000  -0.000000  -0.000000  -0.000002  -0.000000  -0.000000
    40  C    0.000000  -0.000000   0.005453  -0.045456  -0.048163  -0.000120
    41  H   -0.000000   0.000000  -0.000129   0.000562  -0.001007  -0.000009
    42  H   -0.000000   0.000000  -0.000129   0.000569  -0.001012  -0.000009
    43  H   -0.000000   0.000000   0.000012   0.000652   0.002668   0.000005
    44  Co   0.000012  -0.000010   0.007032   0.364141   0.005943  -0.001253
              25         26         27         28         29         30
     1  C    0.000002   0.000002  -0.000023   0.000000  -0.000000  -0.000000
     2  C   -0.000026   0.000055   0.000802  -0.000003   0.000002  -0.000002
     3  C    0.000002   0.000075   0.000160  -0.000001  -0.000000   0.000001
     4  C   -0.000000  -0.000001   0.000079   0.000000   0.000000   0.000000
     5  C    0.000000   0.000000   0.000001   0.000000   0.000000  -0.000000
     6  C   -0.000000  -0.000000   0.000001   0.000000   0.000000   0.000000
     7  H   -0.000000   0.000109   0.006413   0.000002  -0.000000  -0.000008
     8  H    0.000000   0.000000  -0.000010  -0.000000  -0.000000   0.000000
     9  H   -0.000000  -0.000000   0.000000   0.000000   0.000000   0.000000
    10  C   -0.000000  -0.000000   0.000000   0.000000   0.000000   0.000000
    11  C    0.000000  -0.000000   0.000000  -0.000000   0.000000   0.000000
    12  C    0.000000   0.000000  -0.000000  -0.000000  -0.000000  -0.000000
    13  C   -0.000000   0.000000   0.000000   0.000000   0.000000  -0.000000
    14  C   -0.000000   0.000000  -0.000000  -0.000000   0.000000  -0.000000
    15  C    0.000000  -0.000000  -0.000000  -0.000000   0.000000   0.000000
    16  H   -0.000000  -0.000000   0.000000   0.000000  -0.000000  -0.000000
    17  C   -0.000000  -0.000000   0.000000   0.000000   0.000000   0.000000
    18  H    0.000000   0.000000  -0.000000   0.000000  -0.000000   0.000000
    19  H   -0.000000   0.000000  -0.000000   0.000000   0.000000   0.000000
    20  H    0.000000   0.000000  -0.000000   0.000000   0.000000   0.000000
    21  C   -0.048866  -0.006577  -0.033113  -0.038892   0.003920   0.001917
    22  C    0.004671  -0.000053  -0.000151  -0.000055  -0.000201   0.000003
    23  C    0.532453  -0.037814   0.003737  -0.008783  -0.037730   0.000916
    24  C   -0.044878   0.511345   0.355635  -0.036007   0.000275  -0.035339
    25  C    5.027350  -0.037261   0.000437   0.518437   0.362236   0.003943
    26  C   -0.037261   4.897441  -0.035670   0.554325   0.003852   0.369010
    27  H    0.000437  -0.035670   0.510214   0.003652   0.000013  -0.003900
    28  C    0.518437   0.554325   0.003652   4.888861  -0.035275  -0.035961
    29  H    0.362236   0.003852   0.000013  -0.035275   0.532526  -0.000145
    30  H    0.003943   0.369010  -0.003900  -0.035961  -0.000145   0.529891
    31  H   -0.036598  -0.036274  -0.000145   0.368414  -0.004167  -0.004526
    32  N    0.009302   0.005054  -0.004968  -0.000211  -0.000093  -0.000088
    33  N   -0.081524  -0.000186  -0.000098   0.005339  -0.007242   0.000004
    34  N    0.000000  -0.000000   0.000000   0.000000  -0.000000   0.000000
    35  N   -0.000000   0.000000   0.000000   0.000000  -0.000000  -0.000000
    36  C    0.000000  -0.000000   0.000000   0.000000  -0.000000   0.000000
    37  H   -0.000000   0.000000  -0.000000   0.000000  -0.000000  -0.000000
    38  H   -0.000000   0.000000  -0.000000   0.000000  -0.000000  -0.000000
    39  H    0.000000  -0.000000   0.000000  -0.000000   0.000000  -0.000000
    40  C   -0.002656   0.000009   0.000003  -0.000107   0.004215  -0.000000
    41  H    0.002460  -0.000001  -0.000000  -0.000004   0.000500  -0.000000
    42  H    0.002463  -0.000001  -0.000000  -0.000004   0.000502  -0.000000
    43  H    0.000009  -0.000000  -0.000000   0.000001  -0.000032  -0.000000
    44  Co  -0.001345   0.000165   0.000045   0.000150   0.000026   0.000012
              31         32         33         34         35         36
     1  C    0.000000  -0.042061   0.001630  -0.042061   0.001630  -0.000008
     2  C   -0.000000   0.244519   0.006254   0.006208  -0.000036   0.000000
     3  C   -0.000000  -0.077174  -0.000139   0.000003   0.000000   0.000000
     4  C   -0.000000   0.004527   0.000001   0.004527   0.000001  -0.000000
     5  C    0.000000   0.000003   0.000000  -0.077175  -0.000139   0.000002
     6  C   -0.000000   0.006208  -0.000036   0.244519   0.006254  -0.000028
     7  H    0.000000  -0.003295  -0.000000   0.000009  -0.000000  -0.000000
     8  H   -0.000000  -0.000093  -0.000000  -0.000093  -0.000000   0.000000
     9  H   -0.000000   0.000009  -0.000000  -0.003295  -0.000000  -0.000000
    10  C    0.000000   0.000000   0.000000   0.255737  -0.046735   0.005453
    11  C    0.000000   0.000236   0.000025   0.350803   0.301647  -0.045456
    12  C    0.000000   0.000000   0.000000  -0.041273   0.260242  -0.048164
    13  C   -0.000000  -0.000000   0.000000  -0.075876   0.009612  -0.000120
    14  C    0.000000   0.000000  -0.000000   0.009303  -0.081525  -0.002656
    15  C    0.000000  -0.000000   0.000000   0.005054  -0.000186   0.000009
    16  H   -0.000000   0.000000   0.000000  -0.004968  -0.000098   0.000003
    17  C    0.000000   0.000000   0.000000  -0.000211   0.005339  -0.000107
    18  H    0.000000  -0.000000  -0.000000  -0.000093  -0.007242   0.004215
    19  H    0.000000   0.000000  -0.000000  -0.000088   0.000004  -0.000000
    20  H    0.000000   0.000000  -0.000000   0.000004  -0.000098  -0.000002
    21  C    0.000883   0.255739  -0.046735   0.000000   0.000000   0.000000
    22  C    0.000002   0.350802   0.301648   0.000236   0.000025   0.000013
    23  C    0.002294  -0.041274   0.260241   0.000000   0.000000   0.000000
    24  C    0.003974  -0.075874   0.009611  -0.000000   0.000000   0.000000
    25  C   -0.036598   0.009302  -0.081524   0.000000  -0.000000   0.000000
    26  C   -0.036274   0.005054  -0.000186  -0.000000   0.000000  -0.000000
    27  H   -0.000145  -0.004968  -0.000098   0.000000   0.000000   0.000000
    28  C    0.368414  -0.000211   0.005339   0.000000   0.000000   0.000000
    29  H   -0.004167  -0.000093  -0.007242  -0.000000  -0.000000  -0.000000
    30  H   -0.004526  -0.000088   0.000004   0.000000  -0.000000   0.000000
    31  H    0.534728   0.000004  -0.000098   0.000000  -0.000000  -0.000000
    32  N    0.000004   7.222756  -0.060331  -0.000048   0.000000   0.000000
    33  N   -0.000098  -0.060331   7.063949   0.000000  -0.000000  -0.000000
    34  N    0.000000  -0.000048   0.000000   7.222766  -0.060332   0.004605
    35  N   -0.000000   0.000000  -0.000000  -0.060332   7.063952   0.300280
    36  C   -0.000000   0.000000  -0.000000   0.004605   0.300280   5.060848
    37  H    0.000000   0.000000   0.000000  -0.000066  -0.041036   0.377000
    38  H    0.000000   0.000000   0.000000  -0.000066  -0.041040   0.377007
    39  H    0.000000  -0.000000   0.000001   0.000165  -0.032555   0.375992
    40  C   -0.000002   0.004605   0.300280   0.000000  -0.000000   0.000000
    41  H   -0.000000  -0.000066  -0.041040   0.000000   0.000000  -0.000000
    42  H   -0.000000  -0.000066  -0.041036   0.000000   0.000000  -0.000000
    43  H   -0.000000   0.000165  -0.032555  -0.000000   0.000001  -0.000000
    44  Co  -0.000010  -0.071976  -0.054898  -0.071976  -0.054898  -0.007816
              37         38         39         40         41         42
     1  C   -0.000001  -0.000001  -0.000012  -0.000008  -0.000001  -0.000001
     2  C   -0.000000  -0.000000   0.000001  -0.000028   0.000003   0.000003
     3  C    0.000000   0.000000   0.000000   0.000002  -0.000000  -0.000000
     4  C    0.000000   0.000000  -0.000000  -0.000000   0.000000   0.000000
     5  C   -0.000000  -0.000000   0.000000   0.000000   0.000000   0.000000
     6  C    0.000003   0.000003  -0.000007   0.000000  -0.000000  -0.000000
     7  H    0.000000   0.000000   0.000000  -0.000000   0.000000   0.000000
     8  H   -0.000000  -0.000000   0.000000   0.000000  -0.000000  -0.000000
     9  H    0.000000   0.000000   0.000000  -0.000000   0.000000   0.000000
    10  C   -0.000129  -0.000129   0.000012   0.000000  -0.000000  -0.000000
    11  C    0.000568   0.000563   0.000652   0.000013  -0.000000  -0.000000
    12  C   -0.001011  -0.001008   0.002668   0.000000  -0.000000  -0.000000
    13  C   -0.000009  -0.000009   0.000005   0.000000  -0.000000  -0.000000
    14  C    0.002462   0.002460   0.000009   0.000000  -0.000000  -0.000000
    15  C   -0.000001  -0.000001  -0.000000  -0.000000   0.000000   0.000000
    16  H   -0.000000  -0.000000  -0.000000   0.000000  -0.000000  -0.000000
    17  C   -0.000004  -0.000004   0.000001   0.000000   0.000000   0.000000
    18  H    0.000502   0.000500  -0.000032  -0.000000  -0.000000  -0.000000
    19  H   -0.000000  -0.000000  -0.000000   0.000000  -0.000000  -0.000000
    20  H   -0.000000  -0.000000  -0.000000  -0.000000   0.000000   0.000000
    21  C   -0.000000  -0.000000  -0.000000   0.005453  -0.000129  -0.000129
    22  C   -0.000000  -0.000000  -0.000002  -0.045456   0.000562   0.000569
    23  C   -0.000000  -0.000000  -0.000000  -0.048163  -0.001007  -0.001012
    24  C   -0.000000  -0.000000  -0.000000  -0.000120  -0.000009  -0.000009
    25  C   -0.000000  -0.000000   0.000000  -0.002656   0.002460   0.002463
    26  C    0.000000   0.000000  -0.000000   0.000009  -0.000001  -0.000001
    27  H   -0.000000  -0.000000   0.000000   0.000003  -0.000000  -0.000000
    28  C    0.000000   0.000000  -0.000000  -0.000107  -0.000004  -0.000004
    29  H   -0.000000  -0.000000   0.000000   0.004215   0.000500   0.000502
    30  H   -0.000000  -0.000000  -0.000000  -0.000000  -0.000000  -0.000000
    31  H    0.000000   0.000000   0.000000  -0.000002  -0.000000  -0.000000
    32  N    0.000000   0.000000  -0.000000   0.004605  -0.000066  -0.000066
    33  N    0.000000   0.000000   0.000001   0.300280  -0.041040  -0.041036
    34  N   -0.000066  -0.000066   0.000165   0.000000   0.000000   0.000000
    35  N   -0.041036  -0.041040  -0.032555  -0.000000   0.000000   0.000000
    36  C    0.377000   0.377007   0.375992   0.000000  -0.000000  -0.000000
    37  H    0.523901  -0.040045  -0.024995  -0.000000   0.000000  -0.000000
    38  H   -0.040045   0.523898  -0.025002  -0.000000  -0.000000   0.000000
    39  H   -0.024995  -0.025002   0.468264  -0.000000   0.000000   0.000000
    40  C   -0.000000  -0.000000  -0.000000   5.060848   0.377007   0.377000
    41  H    0.000000  -0.000000   0.000000   0.377007   0.523898  -0.040045
    42  H   -0.000000   0.000000   0.000000   0.377000  -0.040045   0.523901
    43  H    0.000000   0.000000  -0.000023   0.375992  -0.025003  -0.024994
    44  Co   0.000705   0.000708   0.008778  -0.007816   0.000708   0.000705
              43         44
     1  C   -0.000012   0.254427
     2  C   -0.000007  -0.054254
     3  C    0.000000   0.006895
     4  C   -0.000000   0.002282
     5  C    0.000000   0.006895
     6  C    0.000001  -0.054254
     7  H    0.000000  -0.000667
     8  H    0.000000   0.000125
     9  H    0.000000  -0.000667
    10  C   -0.000000   0.007032
    11  C   -0.000002   0.364141
    12  C   -0.000000   0.005943
    13  C   -0.000000  -0.001253
    14  C    0.000000  -0.001345
    15  C   -0.000000   0.000165
    16  H    0.000000   0.000045
    17  C   -0.000000   0.000150
    18  H    0.000000   0.000026
    19  H   -0.000000   0.000012
    20  H    0.000000  -0.000010
    21  C    0.000012   0.007032
    22  C    0.000652   0.364141
    23  C    0.002668   0.005943
    24  C    0.000005  -0.001253
    25  C    0.000009  -0.001345
    26  C   -0.000000   0.000165
    27  H   -0.000000   0.000045
    28  C    0.000001   0.000150
    29  H   -0.000032   0.000026
    30  H   -0.000000   0.000012
    31  H   -0.000000  -0.000010
    32  N    0.000165  -0.071976
    33  N   -0.032555  -0.054898
    34  N   -0.000000  -0.071976
    35  N    0.000001  -0.054898
    36  C   -0.000000  -0.007816
    37  H    0.000000   0.000705
    38  H    0.000000   0.000708
    39  H   -0.000023   0.008778
    40  C    0.375992  -0.007816
    41  H   -0.025003   0.000708
    42  H   -0.024994   0.000705
    43  H    0.468264   0.008778
    44  Co   0.008778  16.494551
          Atomic-Atomic Spin Densities.
               1          2          3          4          5          6
     1  C   -0.000002   0.000000   0.000000   0.000000   0.000000   0.000000
     2  C    0.000000   0.000000  -0.000000  -0.000000  -0.000000   0.000000
     3  C    0.000000  -0.000000  -0.000000   0.000000   0.000000  -0.000000
     4  C    0.000000  -0.000000   0.000000  -0.000000   0.000000  -0.000000
     5  C    0.000000  -0.000000   0.000000   0.000000  -0.000000  -0.000000
     6  C    0.000000   0.000000  -0.000000  -0.000000  -0.000000   0.000000
     7  H   -0.000000   0.000000   0.000000   0.000000  -0.000000   0.000000
     8  H   -0.000000   0.000000  -0.000000  -0.000000  -0.000000   0.000000
     9  H   -0.000000   0.000000  -0.000000   0.000000   0.000000   0.000000
    10  C   -0.000000   0.000000   0.000000  -0.000000  -0.000000  -0.000000
    11  C    0.000000  -0.000000   0.000000  -0.000000   0.000000   0.000000
    12  C    0.000000   0.000000  -0.000000  -0.000000  -0.000000  -0.000000
    13  C   -0.000000  -0.000000   0.000000  -0.000000  -0.000000  -0.000000
    14  C   -0.000000   0.000000   0.000000  -0.000000  -0.000000  -0.000000
    15  C   -0.000000  -0.000000   0.000000  -0.000000   0.000000   0.000000
    16  H   -0.000000   0.000000  -0.000000   0.000000   0.000000   0.000000
    17  C    0.000000   0.000000  -0.000000  -0.000000  -0.000000   0.000000
    18  H    0.000000  -0.000000  -0.000000   0.000000   0.000000   0.000000
    19  H    0.000000   0.000000  -0.000000   0.000000  -0.000000  -0.000000
    20  H   -0.000000   0.000000   0.000000  -0.000000  -0.000000  -0.000000
    21  C   -0.000000  -0.000000  -0.000000  -0.000000   0.000000   0.000000
    22  C    0.000000   0.000000   0.000000  -0.000000   0.000000  -0.000000
    23  C    0.000000  -0.000000  -0.000000  -0.000000  -0.000000   0.000000
    24  C   -0.000000  -0.000000  -0.000000  -0.000000   0.000000  -0.000000
    25  C   -0.000000  -0.000000  -0.000000  -0.000000   0.000000   0.000000
    26  C   -0.000000   0.000000   0.000000  -0.000000   0.000000  -0.000000
    27  H   -0.000000   0.000000   0.000000   0.000000  -0.000000   0.000000
    28  C    0.000000   0.000000  -0.000000  -0.000000  -0.000000   0.000000
    29  H    0.000000   0.000000   0.000000   0.000000  -0.000000  -0.000000
    30  H    0.000000  -0.000000  -0.000000   0.000000  -0.000000   0.000000
    31  H   -0.000000  -0.000000  -0.000000  -0.000000   0.000000   0.000000
    32  N   -0.000000  -0.000000   0.000000   0.000000  -0.000000   0.000000
    33  N   -0.000000  -0.000000  -0.000000  -0.000000   0.000000   0.000000
    34  N   -0.000000   0.000000  -0.000000   0.000000   0.000000  -0.000000
    35  N   -0.000000   0.000000   0.000000  -0.000000  -0.000000  -0.000000
    36  C   -0.000000   0.000000   0.000000  -0.000000   0.000000  -0.000000
    37  H   -0.000000   0.000000  -0.000000  -0.000000  -0.000000  -0.000000
    38  H    0.000000  -0.000000   0.000000   0.000000   0.000000   0.000000
    39  H    0.000000   0.000000  -0.000000   0.000000   0.000000  -0.000000
    40  C   -0.000000  -0.000000   0.000000  -0.000000   0.000000   0.000000
    41  H    0.000000   0.000000   0.000000   0.000000   0.000000  -0.000000
    42  H    0.000000  -0.000000   0.000000   0.000000   0.000000  -0.000000
    43  H    0.000000  -0.000000   0.000000   0.000000  -0.000000   0.000000
    44  Co   0.000000  -0.000000   0.000000   0.000000   0.000000  -0.000000
               7          8          9         10         11         12
     1  C   -0.000000  -0.000000  -0.000000  -0.000000   0.000000   0.000000
     2  C    0.000000   0.000000   0.000000   0.000000  -0.000000   0.000000
     3  C    0.000000  -0.000000  -0.000000   0.000000   0.000000  -0.000000
     4  C    0.000000  -0.000000   0.000000  -0.000000  -0.000000  -0.000000
     5  C   -0.000000  -0.000000   0.000000  -0.000000   0.000000  -0.000000
     6  C    0.000000   0.000000   0.000000  -0.000000   0.000000  -0.000000
     7  H   -0.000000   0.000000  -0.000000   0.000000  -0.000000   0.000000
     8  H    0.000000   0.000000   0.000000   0.000000  -0.000000   0.000000
     9  H   -0.000000   0.000000  -0.000000   0.000000  -0.000000   0.000000
    10  C    0.000000   0.000000   0.000000   0.000000  -0.000000   0.000000
    11  C   -0.000000  -0.000000  -0.000000  -0.000000  -0.000000  -0.000000
    12  C    0.000000   0.000000   0.000000   0.000000  -0.000000   0.000000
    13  C    0.000000  -0.000000   0.000000  -0.000000   0.000000   0.000000
    14  C    0.000000   0.000000   0.000000   0.000000   0.000000   0.000000
    15  C   -0.000000  -0.000000   0.000000   0.000000   0.000000  -0.000000
    16  H    0.000000   0.000000  -0.000000   0.000000  -0.000000   0.000000
    17  C    0.000000   0.000000   0.000000  -0.000000  -0.000000   0.000000
    18  H   -0.000000  -0.000000  -0.000000  -0.000000  -0.000000  -0.000000
    19  H    0.000000   0.000000   0.000000  -0.000000  -0.000000   0.000000
    20  H    0.000000   0.000000   0.000000   0.000000   0.000000  -0.000000
    21  C    0.000000   0.000000   0.000000  -0.000000  -0.000000   0.000000
    22  C   -0.000000  -0.000000  -0.000000  -0.000000  -0.000000  -0.000000
    23  C    0.000000   0.000000   0.000000   0.000000  -0.000000  -0.000000
    24  C    0.000000  -0.000000   0.000000  -0.000000   0.000000  -0.000000
    25  C    0.000000   0.000000   0.000000  -0.000000   0.000000   0.000000
    26  C    0.000000  -0.000000  -0.000000  -0.000000  -0.000000   0.000000
    27  H   -0.000000   0.000000   0.000000   0.000000  -0.000000   0.000000
    28  C    0.000000   0.000000   0.000000   0.000000  -0.000000   0.000000
    29  H   -0.000000  -0.000000  -0.000000   0.000000  -0.000000  -0.000000
    30  H    0.000000   0.000000   0.000000   0.000000   0.000000  -0.000000
    31  H    0.000000   0.000000   0.000000  -0.000000   0.000000   0.000000
    32  N   -0.000000   0.000000  -0.000000   0.000000  -0.000000  -0.000000
    33  N    0.000000   0.000000   0.000000  -0.000000   0.000000   0.000000
    34  N   -0.000000   0.000000  -0.000000   0.000000   0.000000  -0.000000
    35  N    0.000000   0.000000   0.000000  -0.000000   0.000000   0.000000
    36  C    0.000000  -0.000000  -0.000000  -0.000000   0.000000  -0.000000
    37  H    0.000000   0.000000   0.000000   0.000000   0.000000   0.000000
    38  H   -0.000000  -0.000000  -0.000000  -0.000000  -0.000000  -0.000000
    39  H   -0.000000   0.000000  -0.000000  -0.000000  -0.000000  -0.000000
    40  C   -0.000000  -0.000000   0.000000  -0.000000   0.000000   0.000000
    41  H   -0.000000  -0.000000  -0.000000   0.000000  -0.000000  -0.000000
    42  H   -0.000000   0.000000  -0.000000   0.000000   0.000000   0.000000
    43  H   -0.000000   0.000000  -0.000000   0.000000  -0.000000  -0.000000
    44  Co  -0.000000  -0.000000  -0.000000  -0.000000  -0.000000  -0.000000
              13         14         15         16         17         18
     1  C   -0.000000  -0.000000  -0.000000  -0.000000   0.000000   0.000000
     2  C   -0.000000   0.000000  -0.000000   0.000000   0.000000  -0.000000
     3  C    0.000000   0.000000   0.000000  -0.000000  -0.000000  -0.000000
     4  C   -0.000000  -0.000000  -0.000000   0.000000  -0.000000   0.000000
     5  C   -0.000000  -0.000000   0.000000   0.000000  -0.000000   0.000000
     6  C   -0.000000  -0.000000   0.000000   0.000000   0.000000   0.000000
     7  H    0.000000   0.000000  -0.000000   0.000000   0.000000  -0.000000
     8  H   -0.000000   0.000000  -0.000000   0.000000   0.000000  -0.000000
     9  H    0.000000   0.000000   0.000000  -0.000000   0.000000  -0.000000
    10  C   -0.000000   0.000000   0.000000   0.000000  -0.000000  -0.000000
    11  C    0.000000   0.000000   0.000000  -0.000000  -0.000000  -0.000000
    12  C    0.000000   0.000000  -0.000000   0.000000   0.000000  -0.000000
    13  C   -0.000000  -0.000000   0.000000   0.000000   0.000000   0.000000
    14  C   -0.000000  -0.000000   0.000000   0.000000   0.000000   0.000000
    15  C    0.000000   0.000000  -0.000000  -0.000000  -0.000000  -0.000000
    16  H    0.000000   0.000000  -0.000000   0.000000   0.000000  -0.000000
[...]
 
              Baa    -0.0000    -0.000    -0.000    -0.000 -0.3007 -0.3156  0.9000
    41 H(1)   Bbb    -0.0000    -0.000    -0.000    -0.000 -0.5648  0.8193  0.0986
              Bcc     0.0000     0.000     0.000     0.000  0.7685  0.4786  0.4246
 
              Baa    -0.0000    -0.000    -0.000    -0.000  0.9183 -0.3137  0.2415
    42 H(1)   Bbb    -0.0000    -0.000    -0.000    -0.000  0.0120  0.6319  0.7749
              Bcc     0.0000     0.000     0.000     0.000  0.3957  0.7087 -0.5841
 
              Baa    -0.0000    -0.000    -0.000    -0.000  0.8712 -0.4194 -0.2553
    43 H(1)   Bbb    -0.0000    -0.000    -0.000    -0.000  0.0600 -0.4250  0.9032
              Bcc     0.0000     0.000     0.000     0.000  0.4873  0.8022  0.3451
 
              Baa    -0.0001    -0.008    -0.003    -0.003  0.9978 -0.0094 -0.0661
    44 Co(59) Bbb     0.0000     0.002     0.001     0.001  0.0609  0.5350  0.8427
              Bcc     0.0000     0.006     0.002     0.002 -0.0274  0.8448 -0.5344
 

 ---------------------------------------------------------------------------------

   1 Symmetry operations used in ECPInt.
 ECPInt:  NShTT=   11781 NPrTT=   71406 LenC2=    9510 LenP2D=   31986.
 LDataN:  DoStor=T MaxTD1= 7 Len=  274
 Calling FoFJK, ICntrl=      2127 FMM=F ISym2X=0 I1Cent= 0 IOpClX= 1 NMat=1 NMatS=1 NMatT=0.
 -------------------------------------------------------------------
 Center     Atomic                   Forces (Hartrees/Bohr)
 Number     Number              X              Y              Z
 -------------------------------------------------------------------
      1        6           0.000000238   -0.098973120   -0.000004336
      2        6           0.071819411    0.043148234    0.000003798
      3        6          -0.007887776    0.003377583    0.000000452
      4        6          -0.000002588    0.001706365   -0.000000430
      5        6           0.007892573    0.003382542    0.000000376
      6        6          -0.071817135    0.043139200    0.000002711
      7        1           0.000087653    0.005370147   -0.000000795
      8        1           0.000000231   -0.000837936   -0.000000589
      9        1          -0.000090030    0.005368845   -0.000000880
     10        6          -0.011819820   -0.007347594    0.000001248
     11        6          -0.000145343    0.004750596   -0.000017540
     12        6           0.013324786    0.006693854   -0.000000397
     13        6           0.012789445    0.004221534   -0.000001493
     14        6           0.001248541    0.004995420   -0.000000540
     15        6          -0.013536708    0.006794845    0.000000815
     16        1           0.000200355   -0.000019927   -0.000000379
     17        6           0.000353033   -0.011642527   -0.000000123
     18        1           0.000733505    0.000497356    0.000000065
     19        1           0.000043714   -0.000164375   -0.000000094
     20        1          -0.000287210    0.000094908    0.000000257
     21        6           0.011810729   -0.007321362    0.000000245
     22        6           0.000147901    0.004750884   -0.000020325
     23        6          -0.013333690    0.006683404   -0.000000599
     24        6          -0.012787962    0.004197054   -0.000001024
     25        6          -0.001243504    0.005005569   -0.000001196
     26        6           0.013544213    0.006810899    0.000000231
     27        1          -0.000197901   -0.000012105   -0.000000184
     28        6          -0.000358432   -0.011658175    0.000000183
     29        1          -0.000734942    0.000493637   -0.000000238
     30        1          -0.000043124   -0.000166544   -0.000000137
     31        1           0.000289546    0.000096022    0.000000270
     32        7          -0.022105026   -0.061566295    0.000007872
     33        7           0.027586416    0.021682575    0.000011656
     34        7           0.022103961   -0.061556311    0.000005077
     35        7          -0.027584737    0.021683000    0.000009012
     36        6          -0.000217106   -0.010232077   -0.000001399
     37        1           0.000690596    0.002000406    0.000786816
     38        1           0.000690611    0.002000652   -0.000787219
     39        1           0.000583523    0.001994969    0.000001554
     40        6           0.000217456   -0.010231527   -0.000001467
     41        1          -0.000690484    0.002001202   -0.000787213
     42        1          -0.000690748    0.002000531    0.000786413
     43        1          -0.000583588    0.001995017    0.000001707
     44       27          -0.000000580    0.064792625    0.000007840
 -------------------------------------------------------------------
 Cartesian Forces:  Max     0.098973120 RMS     0.017736226

 GradGradGradGradGradGradGradGradGradGradGradGradGradGradGradGradGradGrad
 Berny optimization.
 Search for a local minimum.
 Step number   1 out of a maximum of    2
 All quantities printed in internal units (Hartrees-Bohrs-Radians)
 Second derivative matrix not updated -- first step.
 ITU=  0
     Eigenvalues ---    0.00054   0.00056   0.00197   0.00242   0.00243
     Eigenvalues ---    0.00381   0.00436   0.00608   0.00650   0.00661
     Eigenvalues ---    0.00667   0.00809   0.00842   0.01315   0.01556
     Eigenvalues ---    0.01795   0.02016   0.02029   0.02529   0.02529
     Eigenvalues ---    0.03042   0.03079   0.04093   0.04194   0.04396
     Eigenvalues ---    0.04483   0.04659   0.05363   0.05518   0.06065
     Eigenvalues ---    0.06136   0.06894   0.06927   0.07023   0.07053
     Eigenvalues ---    0.07055   0.07260   0.07670   0.07740   0.09565
     Eigenvalues ---    0.09806   0.10062   0.10326   0.11424   0.11884
     Eigenvalues ---    0.11945   0.12065   0.12204   0.12796   0.13342
     Eigenvalues ---    0.13343   0.13415   0.13624   0.14700   0.15293
     Eigenvalues ---    0.15412   0.15850   0.19289   0.19748   0.19987
     Eigenvalues ---    0.20953   0.21872   0.23961   0.24336   0.28503
     Eigenvalues ---    0.29427   0.29496   0.30091   0.30668   0.31518
     Eigenvalues ---    0.31706   0.34609   0.34978   0.36389   0.36980
     Eigenvalues ---    0.37471   0.41080   0.41552   0.44284   0.46851
     Eigenvalues ---    0.48109   0.48295   0.49195   0.50785   0.51354
     Eigenvalues ---    0.52837   0.53444   0.53868   0.59663   0.62375
     Eigenvalues ---    0.68508   0.71207   0.72538   0.73762   0.86451
     Eigenvalues ---    0.90222   0.90838   0.91129   0.92564   0.94311
     Eigenvalues ---    0.95063   0.96695   0.99655   1.03832   1.12031
     Eigenvalues ---    1.15568   1.15596   1.18213   1.20487   1.23952
     Eigenvalues ---    1.30668   1.37709   1.37754   1.45254   1.46733
     Eigenvalues ---    1.49372   1.50550   1.53266   1.60364   1.63888
     Eigenvalues ---    1.65545   1.66621   1.77620   1.78746   1.83924
     Eigenvalues ---    1.87746
 Quadratic step=8.114D-01 exceeds max=3.000D-01 adjusted using Lamda=-7.594D-02.
 Angle between NR and scaled steps=  46.32 degrees.
 Angle between quadratic step and forces=  39.47 degrees.
 Linear search not attempted -- first point.
 B after Tr=    -0.000000    0.000203   -0.000000
         Rot=    1.000000   -0.000000   -0.000000   -0.000000 Ang=  -0.00 deg.
 Variable       Old X    -DE/DX   Delta X   Delta X   Delta X     New X
                                 (Linear)    (Quad)   (Total)
    X1        0.00000   0.00000   0.00000   0.00000   0.00000   0.00000
    Y1        1.53369  -0.09897   0.00000  -0.17088  -0.17068   1.36301
    Z1        0.00018  -0.00000   0.00000  -0.00001  -0.00001   0.00017
    X2       -2.42971   0.07182   0.00000   0.08947   0.08947  -2.34024
    Y2        2.57187   0.04315   0.00000  -0.02120  -0.02100   2.55088
    Z2        0.00005   0.00000   0.00000   0.00002   0.00002   0.00006
    X3       -2.35554  -0.00789   0.00000   0.01997   0.01997  -2.33558
    Y3        5.21406   0.00338   0.00000  -0.00318  -0.00297   5.21109
    Z3       -0.00003   0.00000   0.00000   0.00001   0.00001  -0.00002
    X4        0.00001  -0.00000   0.00000  -0.00000  -0.00000   0.00000
    Y4        6.43893   0.00171   0.00000   0.01497   0.01518   6.45411
    Z4        0.00000  -0.00000   0.00000  -0.00000   0.00000   0.00000
    X5        2.35555   0.00789   0.00000  -0.01996  -0.01996   2.33558
    Y5        5.21406   0.00338   0.00000  -0.00317  -0.00297   5.21109
    Z5        0.00006   0.00000   0.00000   0.00001   0.00001   0.00007
    X6        2.42972  -0.07182   0.00000  -0.08947  -0.08947   2.34025
    Y6        2.57188   0.04314   0.00000  -0.02120  -0.02100   2.55088
    Z6        0.00012   0.00000   0.00000   0.00001   0.00001   0.00013
    X7       -4.07932   0.00009   0.00000   0.01573   0.01573  -4.06359
    Y7        6.32008   0.00537   0.00000   0.00837   0.00858   6.32865
    Z7       -0.00008  -0.00000   0.00000  -0.00000  -0.00000  -0.00008
    X8        0.00000   0.00000   0.00000  -0.00000  -0.00000   0.00000
    Y8        8.49457  -0.00084   0.00000   0.01033   0.01053   8.50510
    Z8       -0.00001  -0.00000   0.00000  -0.00001  -0.00001  -0.00002
    X9        4.07933  -0.00009   0.00000  -0.01573  -0.01573   4.06360
    Y9        6.32007   0.00537   0.00000   0.00837   0.00858   6.32865
    Z9        0.00008  -0.00000   0.00000  -0.00001  -0.00000   0.00008
   X10        6.99300  -0.01182   0.00000  -0.02827  -0.02827   6.96472
   Y10        1.09948  -0.00735   0.00000  -0.01383  -0.01362   1.08586
   Z10       -0.00007   0.00000   0.00000   0.00001   0.00001  -0.00006
   X11        3.64387  -0.00015   0.00000  -0.03660  -0.03660   3.60727
   Y11       -1.72663   0.00475   0.00000   0.00979   0.00999  -1.71664
   Z11        0.00027  -0.00002   0.00000  -0.00005  -0.00005   0.00022
   X12        7.93377   0.01332   0.00000  -0.00928  -0.00928   7.92449
   Y12       -1.40405   0.00669   0.00000   0.00742   0.00762  -1.39643
   Z12       -0.00018  -0.00000   0.00000   0.00001   0.00001  -0.00017
   X13        8.61570   0.01279   0.00000  -0.01251  -0.01251   8.60320
   Y13        3.14392   0.00422   0.00000  -0.00186  -0.00166   3.14226
   Z13       -0.00012  -0.00000   0.00000  -0.00000  -0.00000  -0.00012
   X14       10.51462   0.00125   0.00000  -0.00889  -0.00889  10.50574
   Y14       -1.88498   0.00500   0.00000   0.00274   0.00294  -1.88204
   Z14       -0.00037  -0.00000   0.00000   0.00000   0.00000  -0.00037
   X15       11.23122  -0.01354   0.00000  -0.02687  -0.02687  11.20435
   Y15        2.65474   0.00679   0.00000  -0.00064  -0.00044   2.65430
   Z15       -0.00033   0.00000   0.00000  -0.00000  -0.00000  -0.00033
   X16        7.91720   0.00020   0.00000  -0.00420  -0.00420   7.91299
   Y16        5.06820  -0.00002   0.00000   0.00045   0.00065   5.06886
   Z16        0.00000  -0.00000   0.00000  -0.00001  -0.00000   0.00000
   X17       12.15122   0.00035   0.00000  -0.01165  -0.01165  12.13957
   Y17        0.20015  -0.01164   0.00000  -0.00983  -0.00963   0.19052
   Z17       -0.00046  -0.00000   0.00000   0.00000   0.00000  -0.00046
   X18       11.22747   0.00073   0.00000  -0.00179  -0.00179  11.22568
   Y18       -3.80923   0.00050   0.00000   0.00480   0.00501  -3.80423
   Z18       -0.00045   0.00000   0.00000   0.00000   0.00000  -0.00045
   X19       12.53495   0.00004   0.00000  -0.01793  -0.01793  12.51703
   Y19        4.23901  -0.00016   0.00000  -0.00429  -0.00409   4.23492
   Z19       -0.00037  -0.00000   0.00000  -0.00000  -0.00000  -0.00037
   X20       14.17813  -0.00029   0.00000  -0.00946  -0.00946  14.16868
   Y20       -0.12688   0.00009   0.00000  -0.00297  -0.00277  -0.12964
   Z20       -0.00062   0.00000   0.00000   0.00000   0.00000  -0.00062
   X21       -6.99298   0.01181   0.00000   0.02826   0.02826  -6.96472
   Y21        1.09945  -0.00732   0.00000  -0.01381  -0.01361   1.08585
   Z21       -0.00009   0.00000   0.00000   0.00001   0.00001  -0.00008
   X22       -3.64386   0.00015   0.00000   0.03661   0.03661  -3.60726
   Y22       -1.72664   0.00475   0.00000   0.00979   0.00999  -1.71665
   Z22        0.00021  -0.00002   0.00000  -0.00005  -0.00005   0.00016
   X23       -7.93375  -0.01333   0.00000   0.00927   0.00927  -7.92448
   Y23       -1.40406   0.00668   0.00000   0.00741   0.00762  -1.39644
   Z23       -0.00014  -0.00000   0.00000   0.00001   0.00001  -0.00013
   X24       -8.61570  -0.01279   0.00000   0.01251   0.01251  -8.60319
   Y24        3.14392   0.00420   0.00000  -0.00187  -0.00167   3.14225
   Z24       -0.00011  -0.00000   0.00000  -0.00000  -0.00000  -0.00011
   X25      -10.51461  -0.00124   0.00000   0.00889   0.00889 -10.50573
   Y25       -1.88500   0.00501   0.00000   0.00274   0.00294  -1.88205
   Z25       -0.00019  -0.00000   0.00000  -0.00000  -0.00000  -0.00020
   X26      -11.23122   0.01354   0.00000   0.02688   0.02688 -11.20434
   Y26        2.65471   0.00681   0.00000  -0.00063  -0.00043   2.65428
   Z26       -0.00019   0.00000   0.00000  -0.00000  -0.00000  -0.00020
   X27       -7.91720  -0.00020   0.00000   0.00421   0.00421  -7.91299
   Y27        5.06818  -0.00001   0.00000   0.00046   0.00066   5.06884
   Z27       -0.00005  -0.00000   0.00000  -0.00000  -0.00000  -0.00005
   X28      -12.15121  -0.00036   0.00000   0.01164   0.01164 -12.13956
   Y28        0.20014  -0.01166   0.00000  -0.00984  -0.00964   0.19050
   Z28       -0.00024   0.00000   0.00000  -0.00000  -0.00000  -0.00024
   X29      -11.22746  -0.00073   0.00000   0.00179   0.00179 -11.22566
   Y29       -3.80924   0.00049   0.00000   0.00480   0.00500  -3.80424
   Z29       -0.00019  -0.00000   0.00000  -0.00000  -0.00000  -0.00019
   X30      -12.53496  -0.00004   0.00000   0.01793   0.01793 -12.51702
   Y30        4.23899  -0.00017   0.00000  -0.00429  -0.00409   4.23490
   Z30       -0.00021  -0.00000   0.00000  -0.00000  -0.00000  -0.00021
   X31      -14.17813   0.00029   0.00000   0.00946   0.00946 -14.16867
   Y31       -0.12690   0.00010   0.00000  -0.00297  -0.00277  -0.12967
   Z31       -0.00029   0.00000   0.00000   0.00000   0.00000  -0.00029
   X32       -4.36889  -0.02211   0.00000   0.02582   0.02582  -4.34307
   Y32        0.88696  -0.06157   0.00000  -0.05697  -0.05676   0.83020
   Z32        0.00004   0.00001   0.00000   0.00002   0.00002   0.00005
   X33       -5.91752   0.02759   0.00000   0.05138   0.05138  -5.86613
   Y33       -3.03412   0.02168   0.00000   0.02901   0.02921  -3.00491
   Z33       -0.00008   0.00001   0.00000   0.00002   0.00002  -0.00006
   X34        4.36890   0.02210   0.00000  -0.02582  -0.02582   4.34308
   Y34        0.88696  -0.06156   0.00000  -0.05696  -0.05676   0.83020
   Z34        0.00014   0.00001   0.00000   0.00001   0.00001   0.00015
   X35        5.91753  -0.02758   0.00000  -0.05138  -0.05138   5.86614
   Y35       -3.03411   0.02168   0.00000   0.02901   0.02921  -3.00490
   Z35       -0.00005   0.00001   0.00000   0.00001   0.00001  -0.00004
   X36        6.06970  -0.00022   0.00000  -0.01847  -0.01847   6.05123
   Y36       -5.72999  -0.01023   0.00000   0.00915   0.00935  -5.72064
   Z36        0.00002  -0.00000   0.00000   0.00000   0.00000   0.00002
   X37        7.04356   0.00069   0.00000  -0.00206  -0.00206   7.04150
   Y37       -6.44070   0.00200   0.00000   0.02341   0.02361  -6.41709
   Z37       -1.68756   0.00079   0.00000   0.00377   0.00377  -1.68379
   X38        7.04264   0.00069   0.00000  -0.00205  -0.00206   7.04059
   Y38       -6.44074   0.00200   0.00000   0.02340   0.02360  -6.41714
   Z38        1.68812  -0.00079   0.00000  -0.00376  -0.00377   1.68435
   X39        4.14955   0.00058   0.00000  -0.00978  -0.00978   4.13978
   Y39       -6.49378   0.00199   0.00000   0.00226   0.00246  -6.49132
   Z39       -0.00055   0.00000   0.00000   0.00001   0.00001  -0.00054
   X40       -6.06969   0.00022   0.00000   0.01847   0.01847  -6.05122
   Y40       -5.73000  -0.01023   0.00000   0.00915   0.00935  -5.72065
   Z40        0.00009  -0.00000   0.00000   0.00001   0.00000   0.00009
   X41       -7.04250  -0.00069   0.00000   0.00206   0.00206  -7.04045
   Y41       -6.44071   0.00200   0.00000   0.02340   0.02360  -6.41711
   Z41        1.68828  -0.00079   0.00000  -0.00376  -0.00377   1.68451
   X42       -7.04367  -0.00069   0.00000   0.00206   0.00206  -7.04161
   Y42       -6.44077   0.00200   0.00000   0.02341   0.02362  -6.41715
   Z42       -1.68740   0.00079   0.00000   0.00377   0.00377  -1.68363
   X43       -4.14954  -0.00058   0.00000   0.00978   0.00978  -4.13976
   Y43       -6.49378   0.00200   0.00000   0.00226   0.00246  -6.49132
   Z43       -0.00061   0.00000   0.00000   0.00001   0.00001  -0.00060
   X44        0.00001  -0.00000   0.00000  -0.00000  -0.00000   0.00001
   Y44       -2.40951   0.06479   0.00000   0.12459   0.12479  -2.28472
   Z44        0.00024   0.00001   0.00000  -0.00002  -0.00002   0.00021
         Item               Value     Threshold  Converged?
 Maximum Force            0.098973     0.000450     NO 
 RMS     Force            0.017736     0.000300     NO 
 Maximum Displacement     0.170679     0.001800     NO 
 RMS     Displacement     0.026114     0.001200     NO 
 Predicted change in Energy=-2.701734D-02
 GradGradGradGradGradGradGradGradGradGradGradGradGradGradGradGradGradGrad

 Unable to Open any file for archive entry.
 1\1\GINC-X11P1N5\Force\UPBE1PBE\GenECP\C22H17Co1N4\MAYUMIAO\17-Jul-202
 4\0\\# pbe1pbe em=gd3bj genecp g09default scf=(xqc,maxcycle=64) force 
 guess=read nosymm\\Title Card\\0,1\C,0.00000148,0.81159326,0.0000966\C
 ,-1.28574783,1.3609755,0.00002583\C,-1.24649977,2.75916138,-0.00001462
 \C,0.00000333,3.4073362,0.00000109\C,1.24650251,2.75915958,0.00003043\
 C,1.28574981,1.36097981,0.00006146\H,-2.15868123,3.34444071,-0.0000418
 4\H,0.00000183,4.4951352,-0.00000717\H,2.15868875,3.34443882,0.0000440
 2\C,3.70053418,0.58182088,-0.00003578\C,1.92825247,-0.91369474,0.00014
 216\C,4.19836941,-0.74299379,-0.00009666\C,4.55923354,1.66369054,-0.00
 006455\C,5.56409879,-0.99748593,-0.00019811\C,5.94330502,1.4048279,-0.
 00017305\H,4.18959919,2.68197777,0.00000251\C,6.43014826,0.1059144,-0.
 0002442\H,5.94132339,-2.01575817,-0.00023621\H,6.6332113,2.24318638,-0
 .000197\H,7.5027457,-0.0671394,-0.00032915\C,-3.70052691,0.58180551,-0
 .00004706\C,-1.92824826,-0.9136979,0.00011015\C,-4.19835988,-0.7429956
 1,-0.00007421\C,-4.55923323,1.66369287,-0.00005925\C,-5.56409417,-0.99
 749657,-0.00010171\C,-5.94330687,1.4048135,-0.00010291\H,-4.18960056,2
 .6819676,-0.00002576\C,-6.43014182,0.10591081,-0.00012586\H,-5.9413147
 8,-2.01576355,-0.00009798\H,-6.63321257,2.24317685,-0.00010969\H,-7.50
 274173,-0.06715224,-0.00015436\N,-2.31191805,0.46935863,0.00001915\N,-
 3.13141454,-1.60558775,-0.00004436\N,2.31192204,0.46935645,0.00007661\
 N,3.13142076,-1.60558301,-0.00002544\C,3.21194885,-3.03217906,0.000010
 45\H,3.72729357,-3.40827262,-0.89301701\H,3.72680631,-3.40829387,0.893
 31409\H,2.19584944,-3.43635808,-0.00028865\C,-3.21194153,-3.03218504,0
 .0000455\H,-3.72673149,-3.40827703,0.89339834\H,-3.72735207,-3.4083067
 7,-0.89293116\H,-2.19584127,-3.43636217,-0.00032061\Co,0.00000409,-1.2
 7505988,0.00012573\\Version=ES64L-G16RevC.01\HF=-1212.1105676\S2=0.\S2
 -1=0.\S2A=0.\RMSD=3.764e-09\RMSF=1.774e-02\Dipole=-0.0000019,-1.430861
 6,-0.0001001\Quadrupole=13.753035,7.1406174,-20.8936524,0.0001096,-0.0
 004095,0.0003157\PG=C01 [X(C22H17Co1N4)]\\@
 The archive entry for this job was punched.


 THE WORLD IS MADE UP OF THE WILLS, THE WON'TS, AND THE CANT'S:
 THE WILLS DO EVERYTHING,
 THE WON'TS DO NOTHING,
 THE CAN'TS CAN'T DO ANYTHING.

                               -- FROM WALT DISNEY'S "BLACK HOLE"
 Job cpu time:       0 days  0 hours 28 minutes 17.8 seconds.
 Elapsed time:       0 days  0 hours  0 minutes 32.9 seconds.
 File lengths (MBytes):  RWF=    184 Int=      0 D2E=      0 Chk=    162 Scr=      1
 Normal termination of Gaussian 16 at Wed Jul 17 21:25:06 2024.
