 Entering Gaussian System, Link 0=g16
 Input=JOBS/34_B.gjf
 Output=JOBS/34_B.log
 Initial command:
 /data/app/gaussian/C01-avx2//g16/l1.exe "/tmp/Gau-2095153.inp" -scrdir="/tmp/"
 Entering Link 1 = /data/app/gaussian/C01-avx2//g16/l1.exe PID=   2095154.
  
 Copyright (c) 1988-2019, Gaussian, Inc.  All Rights Reserved.
  
 This is part of the Gaussian(R) 16 program.  It is based on
 the Gaussian(R) 09 system (copyright 2009, Gaussian, Inc.),
 the Gaussian(R) 03 system (copyright 2003, Gaussian, Inc.),
 the Gaussian(R) 98 system (copyright 1998, Gaussian, Inc.),
 the Gaussian(R) 94 system (copyright 1995, Gaussian, Inc.),
 the Gaussian 92(TM) system (copyright 1992, Gaussian, Inc.),
 the Gaussian 90(TM) system (copyright 1990, Gaussian, Inc.),
 the Gaussian 88(TM) system (copyright 1988, Gaussian, Inc.),
 the Gaussian 86(TM) system (copyright 1986, Carnegie Mellon
 University), and the Gaussian 82(TM) system (copyright 1983,
 Carnegie Mellon University). Gaussian is a federally registered
 trademark of Gaussian, Inc.
  
 This software contains proprietary and confidential information,
 including trade secrets, belonging to Gaussian, Inc.
  
 This software is provided under written license and may be
 used, copied, transmitted, or stored only in accord with that
 written license.
  
 The following legend is applicable only to US Government
 contracts under FAR:
  
                    RESTRICTED RIGHTS LEGEND
  
 Use, reproduction and disclosure by the US Government is
 subject to restrictions as set forth in subparagraphs (a)
 and (c) of the Commercial Computer Software - Restricted
 Rights clause in FAR 52.227-19.
  
 Gaussian, Inc.
 340 Quinnipiac St., Bldg. 40, Wallingford CT 06492
  
  
 ---------------------------------------------------------------
 Warning -- This program may not be used in any manner that
 competes with the business of Gaussian, Inc. or will provide
 assistance to any competitor of Gaussian, Inc.  The licensee
 of this program is prohibited from giving any competitor of
 Gaussian, Inc. access to this program.  By using this program,
 the user acknowledges that Gaussian, Inc. is engaged in the
 business of creating and licensing software in the field of
 computational chemistry and represents and warrants to the
 licensee that it is not a competitor of Gaussian, Inc. and that
 it will not use this program in any manner prohibited above.
 ---------------------------------------------------------------
  

 Cite this work as:
 Gaussian 16, Revision C.01,
 M. J. Frisch, G. W. Trucks, H. B. Schlegel, G. E. Scuseria, 
 M. A. Robb, J. R. Cheeseman, G. Scalmani, V. Barone, 
 G. A. Petersson, H. Nakatsuji, X. Li, M. Caricato, A. V. Marenich, 
 J. Bloino, B. G. Janesko, R. Gomperts, B. Mennucci, H. P. Hratchian, 
 J. V. Ortiz, A. F. Izmaylov, J. L. Sonnenberg, D. Williams-Young, 
 F. Ding, F. Lipparini, F. Egidi, J. Goings, B. Peng, A. Petrone, 
 T. Henderson, D. Ranasinghe, V. G. Zakrzewski, J. Gao, N. Rega, 
 G. Zheng, W. Liang, M. Hada, M. Ehara, K. Toyota, R. Fukuda, 
 J. Hasegawa, M. Ishida, T. Nakajima, Y. Honda, O. Kitao, H. Nakai, 
 T. Vreven, K. Throssell, J. A. Montgomery, Jr., J. E. Peralta, 
 F. Ogliaro, M. J. Bearpark, J. J. Heyd, E. N. Brothers, K. N. Kudin, 
 V. N. Staroverov, T. A. Keith, R. Kobayashi, J. Normand, 
 K. Raghavachari, A. P. Rendell, J. C. Burant, S. S. Iyengar, 
 J. Tomasi, M. Cossi, J. M. Millam, M. Klene, C. Adamo, R. Cammi, 
 J. W. Ochterski, R. L. Martin, K. Morokuma, O. Farkas, 
 J. B. Foresman, and D. J. Fox, Gaussian, Inc., Wallingford CT, 2019.
 
 ******************************************
 Gaussian 16:  ES64L-G16RevC.01  3-Jul-2019
                17-Jul-2024 
 ******************************************
 %chk=b.chk
 %nprocshared=56
 Will use up to   56 processors via shared memory.
 %mem=96gb
 ----------------------------------------------------------------------
 # pbe1pbe em=gd3bj genecp g09default scf=(xqc,maxcycle=64) force guess
 =read nosymm
 ----------------------------------------------------------------------
 1/10=7,30=1,38=1,158=3,167=1/1,3;
 2/12=2,15=1,17=6,18=5,40=1/2;
 3/5=7,11=2,16=1,17=8,25=1,27=10,30=1,71=1,74=-13,75=-4,116=-2,124=41,158=3/1,2,3;
 4/5=1,60=-1/1;
 5/5=2,7=64,8=3,13=1,38=6,87=10/2,8;
 6/7=2,8=2,9=2,10=2,28=1,87=10/1;
 7/29=1,30=1,87=10/1,2,3,16;
 1/10=7,30=1,158=3,167=1/3;
 99//99;
 Using 2006 physical constants.
 ----------
 Title Card
 ----------
 Symbolic Z-matrix:
 Charge =  0 Multiplicity = 3
 6                     0.        0.81159   0.0001 
 6                    -1.28575   1.36098   0.00003 
 6                    -1.2465    2.75916  -0.00001 
 6                     0.        3.40734   0. 
 6                     1.2465    2.75916   0.00003 
 6                     1.28575   1.36098   0.00006 
 1                    -2.15868   3.34444  -0.00004 
 1                     0.        4.49514  -0.00001 
 1                     2.15869   3.34444   0.00004 
 6                     3.70053   0.58182  -0.00004 
 6                     1.92825  -0.91369   0.00014 
 6                     4.19837  -0.74299  -0.0001 
 6                     4.55923   1.66369  -0.00006 
 6                     5.5641   -0.99749  -0.0002 
 6                     5.94331   1.40483  -0.00017 
 1                     4.1896    2.68198   0. 
 6                     6.43015   0.10591  -0.00024 
 1                     5.94132  -2.01576  -0.00024 
 1                     6.63321   2.24319  -0.0002 
 1                     7.50275  -0.06714  -0.00033 
 6                    -3.70053   0.58181  -0.00005 
 6                    -1.92825  -0.9137    0.00011 
 6                    -4.19836  -0.743    -0.00007 
 6                    -4.55923   1.66369  -0.00006 
 6                    -5.56409  -0.9975   -0.0001 
 6                    -5.94331   1.40481  -0.0001 
 1                    -4.1896    2.68197  -0.00003 
 6                    -6.43014   0.10591  -0.00013 
 1                    -5.94131  -2.01576  -0.0001 
 1                    -6.63321   2.24318  -0.00011 
 1                    -7.50274  -0.06715  -0.00015 
 7                    -2.31192   0.46936   0.00002 
 7                    -3.13141  -1.60559  -0.00004 
 7                     2.31192   0.46936   0.00008 
 7                     3.13142  -1.60558  -0.00003 
 6                     3.21195  -3.03218   0.00001 
 1                     3.72729  -3.40827  -0.89302 
 1                     3.72681  -3.40829   0.89331 
 1                     2.19585  -3.43636  -0.00029 
 6                    -3.21194  -3.03219   0.00005 
 1                    -3.72673  -3.40828   0.8934 
 1                    -3.72735  -3.40831  -0.89293 
 1                    -2.19584  -3.43636  -0.00032 
 27                    0.       -1.27506   0.00013 
 

 GradGradGradGradGradGradGradGradGradGradGradGradGradGradGradGradGradGrad
 Berny optimization.
 Initialization pass.
 Trust Radius=3.00D-01 FncErr=1.00D-07 GrdErr=1.00D-07 EigMax=2.50D+02 EigMin=1.00D-04
 Number of steps in this run=      2 maximum allowed number of steps=      2.
 GradGradGradGradGradGradGradGradGradGradGradGradGradGradGradGradGradGrad

                          Input orientation:                          
 ---------------------------------------------------------------------
 Center     Atomic      Atomic             Coordinates (Angstroms)
 Number     Number       Type             X           Y           Z
 ---------------------------------------------------------------------
      1          6           0        0.000001    0.811593    0.000097
      2          6           0       -1.285748    1.360976    0.000026
      3          6           0       -1.246500    2.759161   -0.000015
      4          6           0        0.000003    3.407336    0.000001
      5          6           0        1.246503    2.759160    0.000030
      6          6           0        1.285750    1.360980    0.000061
      7          1           0       -2.158681    3.344441   -0.000042
      8          1           0        0.000002    4.495135   -0.000007
      9          1           0        2.158689    3.344439    0.000044
     10          6           0        3.700534    0.581821   -0.000036
     11          6           0        1.928252   -0.913695    0.000142
     12          6           0        4.198369   -0.742994   -0.000097
     13          6           0        4.559234    1.663691   -0.000065
     14          6           0        5.564099   -0.997486   -0.000198
     15          6           0        5.943305    1.404828   -0.000173
     16          1           0        4.189599    2.681978    0.000003
     17          6           0        6.430148    0.105914   -0.000244
     18          1           0        5.941323   -2.015758   -0.000236
     19          1           0        6.633211    2.243186   -0.000197
     20          1           0        7.502746   -0.067139   -0.000329
     21          6           0       -3.700527    0.581806   -0.000047
     22          6           0       -1.928248   -0.913698    0.000110
     23          6           0       -4.198360   -0.742996   -0.000074
     24          6           0       -4.559233    1.663693   -0.000059
     25          6           0       -5.564094   -0.997497   -0.000102
     26          6           0       -5.943307    1.404813   -0.000103
     27          1           0       -4.189601    2.681968   -0.000026
     28          6           0       -6.430142    0.105911   -0.000126
     29          1           0       -5.941315   -2.015764   -0.000098
     30          1           0       -6.633213    2.243177   -0.000110
     31          1           0       -7.502742   -0.067152   -0.000154
     32          7           0       -2.311918    0.469359    0.000019
     33          7           0       -3.131415   -1.605588   -0.000044
     34          7           0        2.311922    0.469356    0.000077
     35          7           0        3.131421   -1.605583   -0.000025
     36          6           0        3.211949   -3.032179    0.000010
     37          1           0        3.727294   -3.408273   -0.893017
     38          1           0        3.726806   -3.408294    0.893314
     39          1           0        2.195849   -3.436358   -0.000289
     40          6           0       -3.211942   -3.032185    0.000046
     41          1           0       -3.726731   -3.408277    0.893398
     42          1           0       -3.727352   -3.408307   -0.892931
     43          1           0       -2.195841   -3.436362   -0.000321
     44         27           0        0.000004   -1.275060    0.000126
 ---------------------------------------------------------------------
                    Distance matrix (angstroms):
                    1          2          3          4          5
     1  C    0.000000
     2  C    1.398203   0.000000
     3  C    2.312312   1.398737   0.000000
     4  C    2.595743   2.416764   1.404956   0.000000
     5  C    2.312310   2.892613   2.493002   1.404953   0.000000
     6  C    1.398204   2.571498   2.892611   2.416758   1.398731
     7  H    3.327946   2.167060   1.083802   2.159601   3.455117
     8  H    3.683542   3.387641   2.137141   1.087799   2.137142
     9  H    3.327948   3.974704   3.455121   2.159602   1.083806
    10  C    3.707659   5.046790   5.404994   4.655907   3.280713
    11  C    2.587425   3.937502   4.854784   4.731749   3.735591
    12  C    4.476945   5.873860   6.473924   5.903517   4.580240
    13  C    4.638175   5.852815   5.908180   4.881279   3.489160
    14  C    5.850807   7.244497   7.777959   7.096592   5.723113
    15  C    5.972837   7.229186   7.316250   6.271593   4.888166
    16  H    4.588144   5.632448   5.436647   4.251924   2.944109
    17  C    6.468753   7.817303   8.122232   7.228150   5.823220
    18  H    6.579759   7.977023   8.629291   8.044205   6.696356
    19  H    6.785936   7.967949   7.896586   6.734589   5.411364
    20  H    7.554028   8.903771   9.194415   8.268200   6.865023
    21  C    3.707656   2.537373   3.280721   4.655915   5.404995
    22  C    2.587427   2.363672   3.735596   4.731753   4.854784
    23  C    4.476939   3.593049   4.580238   5.903517   6.473918
    24  C    4.638178   3.287453   3.489162   4.881284   5.908182
    25  C    5.850809   4.885349   5.723120   7.096600   7.777962
    26  C    5.972841   4.657765   4.888175   6.271605   7.316257
    27  H    4.588144   3.190201   2.944113   4.251934   5.436651
    28  C    6.468750   5.295279   5.823219   7.228152   8.122229
    29  H    6.579756   5.751232   6.696357   8.044207   8.629288
    30  H    6.785938   5.419747   5.411369   6.734599   7.896591
    31  H    7.554029   6.378915   6.865028   8.268207   9.194418
    32  N    2.337113   1.359414   2.525532   3.738542   4.231494
    33  N    3.955822   3.493849   4.754360   5.910599   6.182004
    34  N    2.337114   3.706510   4.231498   3.738542   2.525533
    35  N    3.955822   5.320888   6.182005   5.910595   4.754355
    36  C    5.009111   6.287216   7.308720   7.196107   6.115765
    37  H    5.700669   6.976664   7.973288   7.819380   6.707390
    38  H    5.700382   6.976360   7.973037   7.819200   6.707261
    39  H    4.781928   5.927557   7.087611   7.187342   6.267830
    40  C    5.009113   4.796882   6.115771   7.196112   7.308721
    41  H    5.700336   5.431601   6.707237   7.819162   7.972982
    42  H    5.700721   5.431837   6.707428   7.819431   7.973346
    43  H    4.781930   4.882901   6.267835   7.187346   7.087610
    44  Co   2.086653   2.932889   4.222406   4.682396   4.222403
                    6          7          8          9         10
     6  C    0.000000
     7  H    3.974698   0.000000
     8  H    3.387636   2.446224   0.000000
     9  H    2.167056   4.317370   2.446228   0.000000
    10  C    2.537375   6.477845   5.385905   3.163755   0.000000
    11  C    2.363674   5.902097   5.742264   4.264364   2.318954
    12  C    3.593057   7.557725   6.712994   4.568085   1.415265
    13  C    3.287450   6.924977   5.366905   2.930449   1.381234
    14  C    4.885349   8.859665   7.818444   5.518073   2.442761
    15  C    4.657762   8.330923   6.698720   4.252695   2.389009
    16  H    3.190200   6.382752   4.565114   2.136224   2.156350
    17  C    5.295283   9.179109   7.785374   5.360355   2.770791
    18  H    5.751237   9.712971   8.814252   6.560491   3.430533
    19  H    5.419745   8.860595   7.005051   4.608048   3.370568
    20  H    6.378915  10.246075   8.780975   6.340174   3.857196
    21  C    5.046788   3.163770   5.385913   6.477851   7.401061
    22  C    3.937505   4.264369   5.742266   5.902100   5.824068
    23  C    5.873855   4.568088   6.712992   7.557724   8.009224
    24  C    5.852817   2.930454   5.366907   6.924983   8.330318
    25  C    7.244500   5.518085   7.818450   8.859671   9.398275
    26  C    7.229190   4.252710   6.698732   8.330935   9.678894
    27  H    5.632448   2.136236   4.565123   6.382762   8.164854
    28  C    7.817300   5.360359   7.785373   9.179111  10.141848
    29  H    7.977021   6.560496   8.814252   9.712972   9.985624
    30  H    7.967951   4.608060   7.005059   8.860604  10.466443
    31  H    8.903771   6.340185   8.780981  10.246082  11.222057
    32  N    3.706508   2.879163   4.642397   5.315300   6.013504
    33  N    5.320889   5.044699   6.857448   7.244857   7.173582
    34  N    1.359420   5.315299   4.642399   2.879163   1.393159
    35  N    3.493851   7.244854   6.857445   5.044693   2.260227
    36  C    4.796883   8.336963   8.183952   6.463019   3.646877
    37  H    5.431804   9.002291   8.783736   6.989792   4.088885
    38  H    5.431632   9.002026   8.783580   6.989730   4.088983
    39  H    4.882902   8.058608   8.229844   6.780899   4.290669
    40  C    6.287219   6.463027   8.183956   8.336966   7.800215
    41  H    6.976305   6.989722   8.783544   9.001968   8.478407
    42  H    6.976727   6.989820   8.783785   9.002358   8.478908
    43  H    5.927560   6.780905   8.229847   8.058610   7.135337
    44  Co   2.932891   5.098991   5.770195   5.098989   4.140281
                   11         12         13         14         15
    11  C    0.000000
    12  C    2.276526   0.000000
    13  C    3.683066   2.433588   0.000000
    14  C    3.636812   1.389238   2.844576   0.000000
    15  C    4.636399   2.767298   1.408071   2.432059   0.000000
    16  H    4.247652   3.424983   1.083300   3.927811   2.169469
    17  C    4.615915   2.387778   2.434541   1.402688   1.387153
    18  H    4.161644   2.158198   3.930460   1.085899   3.420587
    19  H    5.665910   3.853015   2.153416   3.412471   1.085733
    20  H    5.638407   3.372785   3.414680   2.150325   2.144421
    21  C    5.824060   8.009223   8.330313   9.398269   9.678887
    22  C    3.856501   6.128995   6.980713   7.492816   8.205907
    23  C    6.128990   8.396729   9.082267   9.765775  10.366606
    24  C    6.980716   9.082276   9.118467  10.467269  10.505728
    25  C    7.492815   9.765780  10.467267  11.128193  11.755484
    26  C    8.205908  10.366613  10.505730  11.755485  11.886612
    27  H    7.096261   9.060265   8.807893  10.424636  10.213073
    28  C    8.420353  10.662359  11.099236  12.044887  12.441438
    29  H    7.946360  10.219253  11.126540  11.550387  12.367079
    30  H    9.124940  11.235675  11.207437  12.620471  12.604429
    31  H    9.468912  11.720613  12.185527  13.099918  13.526378
    32  N    4.460032   6.622208   6.974178   8.011446   8.308057
    33  N    5.106755   7.380366   8.356689   8.716751   9.561022
    34  N    1.435281   2.242427   2.544964   3.567672   3.749940
    35  N    1.387921   1.372020   3.567464   2.507530   4.119377
    36  C    2.477065   2.492668   4.885322   3.110078   5.210311
    37  H    3.202687   2.850076   5.216733   3.159568   5.373436
    38  H    3.202433   2.850330   5.216904   3.160064   5.373763
    39  H    2.536817   3.356233   5.621039   4.158509   6.122132
    40  C    5.559640   7.755843   9.079780   9.008823  10.173771
    41  H    6.244973   8.408882   9.756042   9.640018  10.838545
    42  H    6.245521   8.409406   9.756530   9.640544  10.839045
    43  H    4.834460   6.938311   8.464135   8.134174   9.470102
    44  Co   1.961817   4.231946   5.424281   5.571014   6.519557
                   16         17         18         19         20
    16  H    0.000000
    17  C    3.414112   0.000000
    18  H    5.013707   2.177256   0.000000
    19  H    2.482696   2.146897   4.314779   0.000000
    20  H    4.305181   1.086468   2.497029   2.468541   0.000000
    21  C    8.164852  10.141847   9.985620  10.466438  11.222052
    22  C    7.096262   8.420356   7.946364   9.124939   9.468913
    23  C    9.060259  10.662356  10.219252  11.235667  11.720608
    24  C    8.807893  11.099242  11.126547  11.207436  12.185529
    25  C   10.424637  12.044890  11.550389  12.620471  13.099919
    26  C   10.213077  12.441444  12.367083  12.604431  13.526381
    27  H    8.379200  10.927722  11.167106  10.831703  12.011184
    28  C   10.927718  12.860290  12.552077  13.237037  13.933962
    29  H   11.167103  12.552076  11.882638  13.276195  13.584546
    30  H   10.831703  13.237042  13.276200  13.266424  14.323508
    31  H   12.011184  13.933965  13.584548  14.323506  15.005487
    32  N    6.867708   8.749618   8.619269   9.119309   9.829316
    33  N    8.484130   9.713533   9.082005  10.495760  10.744868
    34  N    2.901959   4.134232   4.398676   4.671190   5.218475
    35  N    4.416211   3.716292   2.839682   5.203418   4.634144
    36  C    5.797188   4.494935   2.912490   6.287648   5.215592
    37  H    6.172711   4.522386   2.763708   6.417201   5.119971
    38  H    6.172811   4.522849   2.764358   6.417537   5.120511
    39  H    6.434988   5.520596   4.005831   7.207455   6.286078
    40  C    9.350640  10.139900   9.209527  11.169448  11.117375
    41  H   10.027844  10.784727   9.808617  11.834947  11.750026
    42  H   10.028311  10.785242   9.809148  11.835439  11.750542
    43  H    8.843525   9.324989   8.260240  10.498068  10.267144
    44  Co   5.762886   6.576765   5.987312   7.508495   7.599355
                   21         22         23         24         25
    21  C    0.000000
    22  C    2.318944   0.000000
    23  C    1.415251   2.276521   0.000000
    24  C    1.381252   3.683073   2.433594   0.000000
    25  C    2.442760   3.636811   1.389245   2.844587   0.000000
    26  C    2.389017   4.636398   2.767295   1.408076   2.432056
    27  H    2.156357   4.247649   3.424974   1.083287   3.927810
    28  C    2.770789   4.615912   2.387780   2.434540   1.402693
    29  H    3.430524   4.161640   2.158201   3.930464   1.085893
    30  H    3.370579   5.665911   3.853016   2.153414   3.412474
    31  H    3.857199   5.638406   3.372789   3.414684   2.150324
    32  N    1.393154   1.435287   2.242424   2.544968   3.567676
    33  N    2.260216   1.387920   1.372020   3.567473   2.507530
    34  N    6.013500   4.460032   6.622203   6.974182   8.011447
    35  N    7.173575   5.106756   7.380362   8.356693   8.716751
    36  C    7.800205   5.559639   7.755839   9.079784   9.008821
    37  H    8.478835   6.245457   8.409342   9.756471   9.640489
    38  H    8.478459   6.245035   8.408937   9.756107   9.640071
    39  H    7.135327   4.834459   6.938308   8.464140   8.134173
    40  C    3.646868   2.477066   2.492671   4.885332   3.110077
    41  H    4.088972   3.202410   2.850342   5.216915   3.160080
    42  H    4.088882   3.202713   2.850075   5.216745   3.159552
    43  H    4.290659   2.536817   3.356234   5.621048   4.158509
    44  Co   4.140275   1.961820   4.231944   5.424289   5.571017
                   26         27         28         29         30
    26  C    0.000000
    27  H    2.169472   0.000000
    28  C    1.387140   3.414102   0.000000
    29  H    3.420578   5.013699   2.177258   0.000000
    30  H    1.085736   2.482696   2.146892   4.314776   0.000000
    31  H    2.144416   4.305179   1.086472   2.497026   2.468542
    32  N    3.749941   2.901953   4.134230   4.398676   4.671190
    33  N    4.119375   4.416207   3.716292   2.839680   5.203420
    34  N    8.308061   6.867710   8.749616   8.619266   9.119313
    35  N    9.561023   8.484129   9.713531   9.082003  10.495762
    36  C   10.173771   9.350637  10.139897   9.209524  11.169449
    37  H   10.838985  10.028244  10.785186   9.809096  11.835381
    38  H   10.838602  10.027903  10.784779   9.808664  11.835004
    39  H    9.470101   8.843522   9.324988   8.260238  10.498069
    40  C    5.210308   5.797185   4.494937   2.912489   6.287650
    41  H    5.373769   6.172806   4.522867   2.764382   6.417548
    42  H    5.373428   6.172714   4.522378   2.763686   6.417197
    43  H    6.122130   6.434985   5.520598   4.005830   7.207456
    44  Co   6.519560   5.762886   6.576766   5.987313   7.508499
                   31         32         33         34         35
    31  H    0.000000
    32  N    5.218476   0.000000
    33  N    4.634143   2.230914   0.000000
    34  N    9.829317   4.623840   5.825402   0.000000
    35  N   10.744868   5.825403   6.262835   2.230908   0.000000
    36  C   11.117373   6.540174   6.501801   3.615356   1.428867
    37  H   11.750489   7.232262   7.147653   4.223375   2.098139
    38  H   11.750075   7.231899   7.147239   4.223262   2.098167
    39  H   10.267143   5.964444   5.633069   3.907439   2.055974
    40  C    5.215591   3.615363   1.428868   6.540173   6.501803
    41  H    5.120528   4.223255   2.098173   7.231833   7.147179
    42  H    5.119954   4.223399   2.098138   7.232328   7.147717
    43  H    6.286077   3.907445   2.055975   5.964442   5.633070
    44  Co   7.599358   2.896201   3.148814   2.896196   3.148812
                   36         37         38         39         40
    36  C    0.000000
    37  H    1.097508   0.000000
    38  H    1.097512   1.786331   0.000000
    39  H    1.093535   1.772872   1.772891   0.000000
    40  C    6.423890   7.006567   7.006112   5.422874   0.000000
    41  H    7.006060   7.665101   7.453538   5.989694   1.097512
    42  H    7.006619   7.454646   7.665191   5.990151   1.097508
    43  H    5.422874   5.990094   5.989752   4.391691   1.093535
    44  Co   3.661155   4.386455   4.386061   3.081063   3.661159
                   41         42         43         44
    41  H    0.000000
    42  H    1.786330   0.000000
    43  H    1.772892   1.772869   0.000000
    44  Co   4.386013   4.386511   3.081066   0.000000
 Symmetry turned off by external request.
 Stoichiometry    C22H17CoN4(3)
 Framework group  C1[X(C22H17CoN4)]
 Deg. of freedom   126
 Full point group                 C1      NOp   1
 Rotational constants (GHZ):           0.4602571           0.0999014           0.0821704
 General basis read from cards:  (5D, 7F)
 ======================================================================================================
                                       Pseudopotential Parameters
 ======================================================================================================
  Center     Atomic      Valence      Angular      Power
  Number     Number     Electrons     Momentum     of R      Exponent        Coefficient   SO-Coeffient
 ======================================================================================================
    1          6
                                   No pseudopotential on this center.
    2          6
                                   No pseudopotential on this center.
    3          6
                                   No pseudopotential on this center.
    4          6
                                   No pseudopotential on this center.
    5          6
                                   No pseudopotential on this center.
    6          6
                                   No pseudopotential on this center.
    7          1
                                   No pseudopotential on this center.
    8          1
                                   No pseudopotential on this center.
    9          1
                                   No pseudopotential on this center.
   10          6
                                   No pseudopotential on this center.
   11          6
                                   No pseudopotential on this center.
   12          6
                                   No pseudopotential on this center.
   13          6
                                   No pseudopotential on this center.
   14          6
                                   No pseudopotential on this center.
   15          6
                                   No pseudopotential on this center.
   16          1
                                   No pseudopotential on this center.
   17          6
                                   No pseudopotential on this center.
   18          1
                                   No pseudopotential on this center.
   19          1
                                   No pseudopotential on this center.
   20          1
                                   No pseudopotential on this center.
   21          6
                                   No pseudopotential on this center.
   22          6
                                   No pseudopotential on this center.
   23          6
                                   No pseudopotential on this center.
   24          6
                                   No pseudopotential on this center.
   25          6
                                   No pseudopotential on this center.
   26          6
                                   No pseudopotential on this center.
   27          1
                                   No pseudopotential on this center.
   28          6
                                   No pseudopotential on this center.
   29          1
                                   No pseudopotential on this center.
   30          1
                                   No pseudopotential on this center.
   31          1
                                   No pseudopotential on this center.
   32          7
                                   No pseudopotential on this center.
   33          7
                                   No pseudopotential on this center.
   34          7
                                   No pseudopotential on this center.
   35          7
                                   No pseudopotential on this center.
   36          6
                                   No pseudopotential on this center.
   37          1
                                   No pseudopotential on this center.
   38          1
                                   No pseudopotential on this center.
   39          1
                                   No pseudopotential on this center.
   40          6
                                   No pseudopotential on this center.
   41          1
                                   No pseudopotential on this center.
   42          1
                                   No pseudopotential on this center.
   43          1
                                   No pseudopotential on this center.
   44         27           17
                                      F and up 
                                                     2        1.0000000        0.00000000    0.00000000
                                      S - F
                                                     2       23.6600000      283.96056600    0.00000000
                                                     2       10.6100000       47.15684600    0.00000000
                                      P - F
                                                     2       25.0400000      182.21223600    0.00000000
                                                     2       10.4400000       35.23335200    0.00000000
                                      D - F
                                                     2       29.5400000      -26.47533300    0.00000000
                                                     2       10.1800000       -1.82578700    0.00000000
 ======================================================================================================
   441 basis functions,   871 primitive gaussians,   473 cartesian basis functions
    98 alpha electrons       96 beta electrons
       nuclear repulsion energy      2479.3855098142 Hartrees.
 NAtoms=   44 NActive=   44 NUniq=   44 SFac= 1.00D+00 NAtFMM=   60 NAOKFM=F Big=F
 Integral buffers will be    131072 words long.
 Raffenetti 2 integral format.
 Two-electron integral symmetry is turned off.
 Nuclear repulsion after empirical dispersion term =     2479.3264881546 Hartrees.
 One-electron integrals computed using PRISM.
   1 Symmetry operations used in ECPInt.
 ECPInt:  NShTT=   11781 NPrTT=   71406 LenC2=    9510 LenP2D=   31986.
 LDataN:  DoStor=T MaxTD1= 6 Len=  172
 NBasis=   441 RedAO= T EigKep=  3.23D-04  NBF=   441
 NBsUse=   441 1.00D-06 EigRej= -1.00D+00 NBFU=   441
 Initial guess from the checkpoint file:  "b.chk"
 B after Tr=     0.000000   -0.001269    0.000002
         Rot=    1.000000    0.000000    0.000000    0.000000 Ang=   0.00 deg.
 Initial guess <Sx>= 0.0000 <Sy>= 0.0000 <Sz>= 1.0000 <S**2>= 2.3443 S= 1.1107
 Requested convergence on RMS density matrix=1.00D-08 within  64 cycles.
 Requested convergence on MAX density matrix=1.00D-06.
 Requested convergence on             energy=1.00D-06.
 No special actions if energy rises.
 Restarting incremental Fock formation.
 SCF Done:  E(UPBE1PBE) =  -1212.11063677     A.U. after   23 cycles
            NFock= 23  Conv=0.46D-08     -V/T= 2.0553
 <Sx>= 0.0000 <Sy>= 0.0000 <Sz>= 1.0000 <S**2>= 2.3566 S= 1.1145
 <L.S>=  0.00000000000    
 Annihilation of the first spin contaminant:
 S**2 before annihilation     2.3566,   after     2.0092
 QCSCF skips out because SCF is already converged.

 **********************************************************************

            Population analysis using the SCF Density.

 **********************************************************************

 Alpha  occ. eigenvalues --  -14.45274 -14.45274 -14.45143 -14.45143 -10.28084
 Alpha  occ. eigenvalues --  -10.28084 -10.27481 -10.27480 -10.27258 -10.27258
 Alpha  occ. eigenvalues --  -10.27167 -10.27167 -10.26766 -10.26765 -10.23650
 Alpha  occ. eigenvalues --  -10.23650 -10.23571 -10.23571 -10.23075 -10.23075
 Alpha  occ. eigenvalues --  -10.22988 -10.22988 -10.22543 -10.22530 -10.22450
 Alpha  occ. eigenvalues --  -10.21139  -3.93396  -2.45227  -2.43704  -2.43277
 Alpha  occ. eigenvalues --   -1.05671  -1.05594  -0.97068  -0.96678  -0.88028
 Alpha  occ. eigenvalues --   -0.87615  -0.85634  -0.80431  -0.78833  -0.77624
 Alpha  occ. eigenvalues --   -0.77613  -0.75522  -0.74844  -0.73247  -0.72353
 Alpha  occ. eigenvalues --   -0.66734  -0.65293  -0.64358  -0.64101  -0.62650
 Alpha  occ. eigenvalues --   -0.61327  -0.58943  -0.57609  -0.56572  -0.53955
 Alpha  occ. eigenvalues --   -0.53074  -0.52299  -0.49684  -0.49602  -0.49121
 Alpha  occ. eigenvalues --   -0.48604  -0.48061  -0.47214  -0.46728  -0.45869
 Alpha  occ. eigenvalues --   -0.45680  -0.45336  -0.44822  -0.44803  -0.44110
 Alpha  occ. eigenvalues --   -0.42781  -0.41897  -0.41315  -0.38931  -0.38520
 Alpha  occ. eigenvalues --   -0.38467  -0.37526  -0.37319  -0.37166  -0.36919
 Alpha  occ. eigenvalues --   -0.36348  -0.35061  -0.34566  -0.33983  -0.31990
 Alpha  occ. eigenvalues --   -0.31207  -0.30442  -0.26870  -0.26614  -0.26399
 Alpha  occ. eigenvalues --   -0.26021  -0.25950  -0.24524  -0.24235  -0.22925
 Alpha  occ. eigenvalues --   -0.20915  -0.20743  -0.10075
 Alpha virt. eigenvalues --   -0.06411  -0.02989  -0.00285  -0.00079   0.00350
 Alpha virt. eigenvalues --    0.02240   0.02767   0.03374   0.03763   0.05603
 Alpha virt. eigenvalues --    0.06115   0.07581   0.07599   0.09642   0.10195
 Alpha virt. eigenvalues --    0.12533   0.13000   0.13827   0.13910   0.14820
 Alpha virt. eigenvalues --    0.15182   0.15314   0.15766   0.15974   0.16507
 Alpha virt. eigenvalues --    0.16905   0.17632   0.17802   0.17861   0.18115
 Alpha virt. eigenvalues --    0.19381   0.19791   0.19852   0.19894   0.20983
 Alpha virt. eigenvalues --    0.21725   0.22137   0.22783   0.23809   0.25279
 Alpha virt. eigenvalues --    0.25509   0.25618   0.26240   0.27579   0.27624
 Alpha virt. eigenvalues --    0.27879   0.28622   0.29690   0.30521   0.31170
 Alpha virt. eigenvalues --    0.32813   0.33035   0.33876   0.34676   0.36246
 Alpha virt. eigenvalues --    0.37434   0.37666   0.39270   0.39308   0.41452
 Alpha virt. eigenvalues --    0.42239   0.43955   0.44185   0.45856   0.46636
 Alpha virt. eigenvalues --    0.46800   0.49304   0.51143   0.51639   0.51925
 Alpha virt. eigenvalues --    0.53798   0.53992   0.56132   0.56160   0.56240
 Alpha virt. eigenvalues --    0.56884   0.57035   0.58014   0.58305   0.58604
 Alpha virt. eigenvalues --    0.58651   0.59437   0.60256   0.61488   0.61496
 Alpha virt. eigenvalues --    0.61560   0.62831   0.63108   0.63216   0.63489
 Alpha virt. eigenvalues --    0.63535   0.63626   0.64027   0.64316   0.65049
 Alpha virt. eigenvalues --    0.65330   0.65834   0.65886   0.66950   0.67298
 Alpha virt. eigenvalues --    0.67974   0.68440   0.68974   0.70944   0.71862
 Alpha virt. eigenvalues --    0.72111   0.73336   0.74973   0.75389   0.76084
 Alpha virt. eigenvalues --    0.76880   0.77854   0.79181   0.79647   0.81002
 Alpha virt. eigenvalues --    0.81670   0.82299   0.82736   0.83651   0.84298
 Alpha virt. eigenvalues --    0.84486   0.84926   0.86259   0.86553   0.86652
 Alpha virt. eigenvalues --    0.87458   0.87682   0.89373   0.89571   0.90485
 Alpha virt. eigenvalues --    0.90953   0.91203   0.91681   0.92847   0.93182
 Alpha virt. eigenvalues --    0.93461   0.94486   0.95010   0.95061   0.95785
 Alpha virt. eigenvalues --    0.97095   0.97535   0.97679   0.98362   0.98416
 Alpha virt. eigenvalues --    1.00117   1.00147   1.01207   1.02123   1.02483
 Alpha virt. eigenvalues --    1.02520   1.03812   1.06106   1.07192   1.07737
 Alpha virt. eigenvalues --    1.08272   1.09420   1.09639   1.10538   1.13488
 Alpha virt. eigenvalues --    1.14830   1.15311   1.16300   1.18136   1.18442
 Alpha virt. eigenvalues --    1.19171   1.19440   1.23064   1.23680   1.24163
 Alpha virt. eigenvalues --    1.24470   1.25742   1.26429   1.26571   1.28822
 Alpha virt. eigenvalues --    1.28936   1.29162   1.31210   1.33382   1.33720
 Alpha virt. eigenvalues --    1.36271   1.36386   1.36508   1.38464   1.39264
 Alpha virt. eigenvalues --    1.41177   1.42306   1.42490   1.42502   1.45121
 Alpha virt. eigenvalues --    1.45286   1.45612   1.45673   1.47463   1.48212
 Alpha virt. eigenvalues --    1.49431   1.50064   1.50177   1.50333   1.50334
 Alpha virt. eigenvalues --    1.50372   1.52229   1.52660   1.56254   1.56613
 Alpha virt. eigenvalues --    1.57756   1.61795   1.63777   1.64573   1.65569
 Alpha virt. eigenvalues --    1.70193   1.72237   1.72768   1.76637   1.77083
 Alpha virt. eigenvalues --    1.78156   1.79570   1.79600   1.82087   1.82802
 Alpha virt. eigenvalues --    1.84402   1.86405   1.86722   1.87292   1.87918
 Alpha virt. eigenvalues --    1.87924   1.89402   1.91055   1.91347   1.93052
 Alpha virt. eigenvalues --    1.94883   1.95066   1.96423   1.96772   1.97686
 Alpha virt. eigenvalues --    1.97708   1.98319   1.98473   1.99011   1.99589
 Alpha virt. eigenvalues --    2.00327   2.01024   2.02390   2.03213   2.05563
 Alpha virt. eigenvalues --    2.06419   2.06917   2.08995   2.09934   2.12036
 Alpha virt. eigenvalues --    2.12743   2.14253   2.15124   2.15164   2.16041
 Alpha virt. eigenvalues --    2.16435   2.16576   2.19009   2.19505   2.20433
 Alpha virt. eigenvalues --    2.21169   2.21219   2.21686   2.23508   2.24253
 Alpha virt. eigenvalues --    2.24415   2.26243   2.27233   2.27334   2.27462
 Alpha virt. eigenvalues --    2.27794   2.27947   2.28333   2.28637   2.32624
 Alpha virt. eigenvalues --    2.33936   2.38207   2.38693   2.40391   2.40405
 Alpha virt. eigenvalues --    2.42532   2.43826   2.44341   2.44572   2.46582
 Alpha virt. eigenvalues --    2.51002   2.51221   2.57161   2.58487   2.58677
 Alpha virt. eigenvalues --    2.58883   2.59764   2.60085   2.61908   2.63757
 Alpha virt. eigenvalues --    2.65002   2.66595   2.66852   2.67560   2.69125
 Alpha virt. eigenvalues --    2.69132   2.70401   2.72204   2.74527   2.74603
 Alpha virt. eigenvalues --    2.74690   2.76145   2.77799   2.78777   2.79873
 Alpha virt. eigenvalues --    2.82288   2.84630   2.87424   2.88291   2.91809
 Alpha virt. eigenvalues --    2.93144   2.96323   2.98314   2.99141   3.00057
 Alpha virt. eigenvalues --    3.05826   3.06523   3.14145   3.18044   3.18896
 Alpha virt. eigenvalues --    3.28894   3.38982   3.45349   3.46757   3.51730
 Alpha virt. eigenvalues --    3.51859   3.54989   5.55371   5.56776   5.57134
 Alpha virt. eigenvalues --    5.59571   5.61014   5.61132   5.62528  45.70467
 Alpha virt. eigenvalues --   45.84277  45.90924  63.01002
  Beta  occ. eigenvalues --  -14.45147 -14.45147 -14.45117 -14.45117 -10.27865
  Beta  occ. eigenvalues --  -10.27865 -10.27483 -10.27483 -10.27268 -10.27267
  Beta  occ. eigenvalues --  -10.27205 -10.27204 -10.26657 -10.26656 -10.23590
  Beta  occ. eigenvalues --  -10.23590 -10.23548 -10.23548 -10.23082 -10.23082
  Beta  occ. eigenvalues --  -10.22954 -10.22954 -10.22630 -10.22626 -10.22354
  Beta  occ. eigenvalues --  -10.21770  -3.85451  -2.36648  -2.36130  -2.33832
  Beta  occ. eigenvalues --   -1.05473  -1.05390  -0.96911  -0.96480  -0.88038
  Beta  occ. eigenvalues --   -0.87545  -0.85760  -0.80379  -0.78818  -0.77568
  Beta  occ. eigenvalues --   -0.77557  -0.75395  -0.74647  -0.73261  -0.72630
  Beta  occ. eigenvalues --   -0.66776  -0.65227  -0.64114  -0.64090  -0.62656
  Beta  occ. eigenvalues --   -0.61232  -0.58942  -0.57727  -0.56574  -0.53939
  Beta  occ. eigenvalues --   -0.53062  -0.52285  -0.49227  -0.49158  -0.49092
  Beta  occ. eigenvalues --   -0.48637  -0.48241  -0.47194  -0.46715  -0.45839
  Beta  occ. eigenvalues --   -0.45687  -0.45308  -0.44813  -0.44482  -0.43804
  Beta  occ. eigenvalues --   -0.42833  -0.41876  -0.41330  -0.38680  -0.38619
  Beta  occ. eigenvalues --   -0.38566  -0.37308  -0.37259  -0.36520  -0.36490
  Beta  occ. eigenvalues --   -0.35697  -0.35149  -0.34030  -0.33339  -0.31668
  Beta  occ. eigenvalues --   -0.29811  -0.27188  -0.26522  -0.25928  -0.24795
  Beta  occ. eigenvalues --   -0.23789  -0.23042  -0.21955  -0.20749  -0.19782
  Beta  occ. eigenvalues --   -0.19578
  Beta virt. eigenvalues --   -0.04417  -0.03915  -0.00761  -0.00233  -0.00119
  Beta virt. eigenvalues --    0.01365   0.01753   0.02430   0.03502   0.05344
  Beta virt. eigenvalues --    0.05576   0.05996   0.07898   0.08683   0.09276
  Beta virt. eigenvalues --    0.10215   0.10597   0.12626   0.13096   0.13952
  Beta virt. eigenvalues --    0.14232   0.15237   0.15321   0.15997   0.16032
  Beta virt. eigenvalues --    0.16568   0.16653   0.16949   0.17721   0.17988
  Beta virt. eigenvalues --    0.18441   0.18741   0.19525   0.19874   0.20134
  Beta virt. eigenvalues --    0.21507   0.21837   0.22316   0.22641   0.22752
  Beta virt. eigenvalues --    0.23864   0.25627   0.25664   0.26187   0.26989
  Beta virt. eigenvalues --    0.27649   0.27973   0.28977   0.29105   0.30061
  Beta virt. eigenvalues --    0.30831   0.31280   0.32936   0.32989   0.34228
  Beta virt. eigenvalues --    0.34723   0.36368   0.37693   0.37951   0.39399
  Beta virt. eigenvalues --    0.39417   0.41428   0.42619   0.44359   0.44484
  Beta virt. eigenvalues --    0.45929   0.47027   0.47298   0.49584   0.51225
  Beta virt. eigenvalues --    0.51768   0.51921   0.53896   0.54128   0.56168
  Beta virt. eigenvalues --    0.56195   0.56431   0.56939   0.57095   0.58193
  Beta virt. eigenvalues --    0.58432   0.58649   0.58923   0.59491   0.60316
  Beta virt. eigenvalues --    0.61536   0.61646   0.61715   0.62882   0.62989
  Beta virt. eigenvalues --    0.63390   0.63528   0.63669   0.63718   0.64060
  Beta virt. eigenvalues --    0.64307   0.65045   0.65355   0.65941   0.66014
  Beta virt. eigenvalues --    0.67364   0.67598   0.68003   0.68670   0.68749
  Beta virt. eigenvalues --    0.70955   0.71914   0.72096   0.73636   0.75232
  Beta virt. eigenvalues --    0.75387   0.76212   0.76969   0.78286   0.79318
  Beta virt. eigenvalues --    0.80268   0.81202   0.81887   0.82528   0.82773
  Beta virt. eigenvalues --    0.84063   0.84375   0.84544   0.85190   0.86251
  Beta virt. eigenvalues --    0.86854   0.87003   0.87473   0.87688   0.89572
  Beta virt. eigenvalues --    0.89637   0.90544   0.91120   0.91297   0.91810
  Beta virt. eigenvalues --    0.92863   0.93184   0.93513   0.95086   0.95172
  Beta virt. eigenvalues --    0.96091   0.96320   0.97098   0.97725   0.97915
  Beta virt. eigenvalues --    0.98352   0.98474   1.00151   1.00212   1.01244
  Beta virt. eigenvalues --    1.02166   1.02500   1.02556   1.03888   1.06202
  Beta virt. eigenvalues --    1.07217   1.08349   1.09230   1.09414   1.10888
  Beta virt. eigenvalues --    1.13546   1.14936   1.15366   1.16331   1.16895
  Beta virt. eigenvalues --    1.18155   1.18475   1.19202   1.19556   1.23130
  Beta virt. eigenvalues --    1.23817   1.24378   1.24530   1.26257   1.26560
  Beta virt. eigenvalues --    1.26705   1.28972   1.29119   1.29319   1.31173
  Beta virt. eigenvalues --    1.33745   1.34019   1.36519   1.36652   1.36684
  Beta virt. eigenvalues --    1.38598   1.39573   1.41421   1.42584   1.42652
  Beta virt. eigenvalues --    1.43009   1.45037   1.45388   1.45805   1.45818
  Beta virt. eigenvalues --    1.47641   1.48325   1.49614   1.50073   1.50333
  Beta virt. eigenvalues --    1.50449   1.50477   1.50637   1.52678   1.53873
  Beta virt. eigenvalues --    1.56490   1.56499   1.58594   1.61963   1.63736
  Beta virt. eigenvalues --    1.65386   1.65817   1.70237   1.72626   1.72905
  Beta virt. eigenvalues --    1.76870   1.77047   1.78456   1.79458   1.79765
  Beta virt. eigenvalues --    1.82175   1.82886   1.84467   1.86530   1.86820
  Beta virt. eigenvalues --    1.87298   1.87745   1.87854   1.89591   1.91069
  Beta virt. eigenvalues --    1.91407   1.93079   1.94900   1.95119   1.96424
  Beta virt. eigenvalues --    1.96838   1.97760   1.97836   1.98327   1.98416
  Beta virt. eigenvalues --    1.99150   1.99816   2.00363   2.01064   2.02432
  Beta virt. eigenvalues --    2.03275   2.05661   2.06616   2.07167   2.09135
  Beta virt. eigenvalues --    2.09829   2.12179   2.12709   2.14575   2.15178
  Beta virt. eigenvalues --    2.15190   2.16108   2.16564   2.16589   2.19117
  Beta virt. eigenvalues --    2.19742   2.20544   2.21254   2.21290   2.21805
  Beta virt. eigenvalues --    2.23760   2.24560   2.24575   2.26451   2.27287
  Beta virt. eigenvalues --    2.27450   2.27553   2.27922   2.28169   2.28526
  Beta virt. eigenvalues --    2.28819   2.32730   2.34329   2.38328   2.39119
  Beta virt. eigenvalues --    2.40515   2.40604   2.44181   2.44619   2.44819
  Beta virt. eigenvalues --    2.46625   2.48538   2.51093   2.51286   2.57353
  Beta virt. eigenvalues --    2.58717   2.58745   2.58808   2.59954   2.60376
  Beta virt. eigenvalues --    2.61990   2.63957   2.65216   2.66703   2.67298
  Beta virt. eigenvalues --    2.68820   2.69139   2.69196   2.71594   2.72538
  Beta virt. eigenvalues --    2.74705   2.74801   2.74873   2.76925   2.78043
  Beta virt. eigenvalues --    2.79166   2.79958   2.82591   2.84940   2.87696
  Beta virt. eigenvalues --    2.88452   2.92755   2.93121   2.96583   2.98229
  Beta virt. eigenvalues --    2.99602   3.00116   3.05997   3.06710   3.14181
  Beta virt. eigenvalues --    3.18252   3.19079   3.28651   3.38997   3.45956
  Beta virt. eigenvalues --    3.46760   3.51736   3.51792   3.58200   5.61527
  Beta virt. eigenvalues --    5.63610   5.63818   5.63958   5.65596   5.68284
  Beta virt. eigenvalues --    5.69445  45.81288  45.92957  45.99382  63.07774
          Condensed to atoms (all electrons):
               1          2          3          4          5          6
     1  C    5.198196   0.501650  -0.060121  -0.055963  -0.060121   0.501651
     2  C    0.501650   4.566013   0.525762  -0.015580  -0.039483  -0.018448
     3  C   -0.060121   0.525762   5.045672   0.527321  -0.030306  -0.039483
     4  C   -0.055963  -0.015580   0.527321   4.909075   0.527320  -0.015580
     5  C   -0.060121  -0.039483  -0.030306   0.527320   5.045673   0.525765
     6  C    0.501651  -0.018448  -0.039483  -0.015580   0.525765   4.566008
     7  H    0.006107  -0.038577   0.345022  -0.038925   0.003850   0.000769
     8  H    0.001377   0.002512  -0.035151   0.366746  -0.035151   0.002512
     9  H    0.006107   0.000769   0.003850  -0.038925   0.345022  -0.038577
    10  C    0.005888  -0.000032   0.000003   0.000109  -0.004686  -0.043706
    11  C    0.006518   0.001672  -0.000036   0.000037   0.002448  -0.061611
    12  C   -0.000682   0.000001  -0.000000   0.000001   0.000107   0.007181
    13  C    0.000175   0.000001  -0.000001   0.000054   0.001661  -0.004250
    14  C    0.000002  -0.000000   0.000000  -0.000000   0.000001  -0.000041
    15  C    0.000001  -0.000000   0.000000  -0.000001   0.000070   0.000061
    16  H   -0.000027   0.000000   0.000001   0.000094   0.000088   0.000841
    17  C    0.000000   0.000000   0.000000   0.000000  -0.000000  -0.000001
    18  H   -0.000000   0.000000   0.000000   0.000000  -0.000000   0.000002
    19  H   -0.000000   0.000000  -0.000000   0.000000   0.000001  -0.000003
    20  H    0.000000  -0.000000   0.000000  -0.000000  -0.000000  -0.000000
    21  C    0.005888  -0.043706  -0.004685   0.000109   0.000003  -0.000032
    22  C    0.006518  -0.061611   0.002448   0.000037  -0.000036   0.001672
    23  C   -0.000682   0.007181   0.000107   0.000001  -0.000000   0.000001
    24  C    0.000175  -0.004250   0.001661   0.000054  -0.000001   0.000001
    25  C    0.000002  -0.000041   0.000001  -0.000000   0.000000  -0.000000
    26  C    0.000001   0.000061   0.000070  -0.000001   0.000000  -0.000000
    27  H   -0.000027   0.000841   0.000088   0.000094   0.000001   0.000000
    28  C    0.000000  -0.000001  -0.000000   0.000000   0.000000   0.000000
    29  H   -0.000000   0.000002  -0.000000   0.000000   0.000000   0.000000
    30  H   -0.000000  -0.000003   0.000001   0.000000  -0.000000   0.000000
    31  H    0.000000  -0.000000  -0.000000  -0.000000   0.000000  -0.000000
    32  N   -0.041197   0.268307  -0.070246   0.004554   0.000031   0.006122
    33  N    0.001165   0.006039  -0.000155   0.000001   0.000000  -0.000032
    34  N   -0.041197   0.006122   0.000031   0.004554  -0.070246   0.268306
    35  N    0.001165  -0.000032   0.000000   0.000001  -0.000155   0.006038
    36  C   -0.000005   0.000000   0.000000  -0.000000   0.000002  -0.000047
    37  H   -0.000000  -0.000000   0.000000   0.000000  -0.000000   0.000003
    38  H   -0.000000  -0.000000   0.000000   0.000000  -0.000000   0.000003
    39  H   -0.000020   0.000001   0.000000  -0.000000   0.000000  -0.000009
    40  C   -0.000005  -0.000047   0.000002  -0.000000   0.000000   0.000000
    41  H   -0.000000   0.000003  -0.000000   0.000000   0.000000  -0.000000
    42  H   -0.000000   0.000003  -0.000000   0.000000   0.000000  -0.000000
    43  H   -0.000020  -0.000009   0.000000  -0.000000   0.000000   0.000001
    44  Co   0.249149  -0.057290   0.003961   0.003456   0.003961  -0.057290
               7          8          9         10         11         12
     1  C    0.006107   0.001377   0.006107   0.005888   0.006518  -0.000682
     2  C   -0.038577   0.002512   0.000769  -0.000032   0.001672   0.000001
     3  C    0.345022  -0.035151   0.003850   0.000003  -0.000036  -0.000000
     4  C   -0.038925   0.366746  -0.038925   0.000109   0.000037   0.000001
     5  C    0.003850  -0.035151   0.345022  -0.004686   0.002448   0.000107
     6  C    0.000769   0.002512  -0.038577  -0.043706  -0.061611   0.007181
     7  H    0.555428  -0.004085  -0.000099  -0.000000  -0.000000   0.000000
     8  H   -0.004085   0.540344  -0.004085  -0.000002   0.000001  -0.000000
     9  H   -0.000099  -0.004085   0.555428   0.000430  -0.000155  -0.000039
    10  C   -0.000000  -0.000002   0.000430   4.636247  -0.067738   0.514655
    11  C   -0.000000   0.000001  -0.000155  -0.067738   4.810948  -0.056223
    12  C    0.000000  -0.000000  -0.000039   0.514655  -0.056223   4.647256
    13  C   -0.000000   0.000002  -0.000040   0.541146   0.004679  -0.055460
    14  C   -0.000000   0.000000   0.000000  -0.048550   0.005487   0.533713
    15  C   -0.000000   0.000000   0.000102  -0.006292  -0.000071  -0.037857
    16  H    0.000000  -0.000010   0.006161  -0.034416  -0.000155   0.003744
    17  C    0.000000  -0.000000   0.000002  -0.039382  -0.000077  -0.007845
    18  H    0.000000  -0.000000  -0.000000   0.003968  -0.000206  -0.038097
    19  H    0.000000   0.000000  -0.000008   0.001941   0.000003   0.000931
    20  H   -0.000000  -0.000000   0.000000   0.000905   0.000003   0.002297
    21  C    0.000430  -0.000002  -0.000000  -0.000000  -0.000006   0.000000
    22  C   -0.000155   0.000001  -0.000000  -0.000006  -0.011306  -0.000001
    23  C   -0.000039  -0.000000   0.000000   0.000000  -0.000001  -0.000000
    24  C   -0.000040   0.000002  -0.000000   0.000000   0.000000   0.000000
    25  C    0.000000   0.000000  -0.000000  -0.000000   0.000000   0.000000
    26  C    0.000102   0.000000  -0.000000  -0.000000  -0.000000   0.000000
    27  H    0.006161  -0.000010   0.000000   0.000000   0.000000  -0.000000
    28  C    0.000002  -0.000000   0.000000   0.000000  -0.000000  -0.000000
    29  H   -0.000000  -0.000000   0.000000   0.000000   0.000000  -0.000000
    30  H   -0.000008   0.000000   0.000000   0.000000   0.000000   0.000000
    31  H    0.000000  -0.000000  -0.000000   0.000000   0.000000   0.000000
    32  N   -0.003935  -0.000092   0.000007   0.000000   0.000201   0.000000
    33  N    0.000002  -0.000000  -0.000000   0.000000   0.000017   0.000000
    34  N    0.000007  -0.000092  -0.003935   0.256460   0.340382  -0.038908
    35  N   -0.000000  -0.000000   0.000002  -0.046082   0.305933   0.271824
    36  C   -0.000000   0.000000  -0.000000   0.005672  -0.044047  -0.047283
    37  H    0.000000  -0.000000   0.000000  -0.000132   0.000738  -0.001110
    38  H    0.000000  -0.000000   0.000000  -0.000132   0.000733  -0.001107
    39  H    0.000000   0.000000   0.000000   0.000017  -0.000371   0.002629
    40  C   -0.000000   0.000000  -0.000000   0.000000   0.000013   0.000000
    41  H    0.000000  -0.000000   0.000000  -0.000000  -0.000000  -0.000000
    42  H    0.000000  -0.000000   0.000000  -0.000000  -0.000000  -0.000000
    43  H    0.000000   0.000000   0.000000  -0.000000  -0.000000  -0.000000
    44  Co  -0.000677   0.000121  -0.000677   0.007872   0.390035   0.004848
              13         14         15         16         17         18
     1  C    0.000175   0.000002   0.000001  -0.000027   0.000000  -0.000000
     2  C    0.000001  -0.000000  -0.000000   0.000000   0.000000   0.000000
     3  C   -0.000001   0.000000   0.000000   0.000001   0.000000   0.000000
     4  C    0.000054  -0.000000  -0.000001   0.000094   0.000000   0.000000
     5  C    0.001661   0.000001   0.000070   0.000088  -0.000000  -0.000000
     6  C   -0.004250  -0.000041   0.000061   0.000841  -0.000001   0.000002
     7  H   -0.000000  -0.000000  -0.000000   0.000000   0.000000   0.000000
     8  H    0.000002   0.000000   0.000000  -0.000010  -0.000000  -0.000000
     9  H   -0.000040   0.000000   0.000102   0.006161   0.000002  -0.000000
    10  C    0.541146  -0.048550  -0.006292  -0.034416  -0.039382   0.003968
    11  C    0.004679   0.005487  -0.000071  -0.000155  -0.000077  -0.000206
    12  C   -0.055460   0.533713  -0.037857   0.003744  -0.007845  -0.038097
    13  C    5.027232  -0.044512   0.506964   0.355592  -0.036167   0.000292
    14  C   -0.044512   5.037145  -0.038235   0.000456   0.515304   0.362247
    15  C    0.506964  -0.038235   4.899924  -0.035636   0.559468   0.003889
    16  H    0.355592   0.000456  -0.035636   0.518290   0.003699   0.000013
    17  C   -0.036167   0.515304   0.559468   0.003699   4.886332  -0.035525
    18  H    0.000292   0.362247   0.003889   0.000013  -0.035525   0.536755
    19  H   -0.035861   0.003971   0.368830  -0.003987  -0.035933  -0.000147
    20  H    0.004014  -0.036940  -0.036367  -0.000149   0.368151  -0.004223
    21  C    0.000000  -0.000000  -0.000000   0.000000   0.000000   0.000000
    22  C    0.000000   0.000000  -0.000000   0.000000  -0.000000   0.000000
    23  C    0.000000   0.000000   0.000000  -0.000000  -0.000000  -0.000000
    24  C    0.000000  -0.000000  -0.000000   0.000000   0.000000   0.000000
    25  C   -0.000000  -0.000000   0.000000  -0.000000  -0.000000   0.000000
    26  C   -0.000000   0.000000  -0.000000  -0.000000   0.000000   0.000000
    27  H    0.000000  -0.000000  -0.000000   0.000000   0.000000  -0.000000
    28  C    0.000000  -0.000000   0.000000   0.000000   0.000000   0.000000
    29  H    0.000000   0.000000   0.000000  -0.000000   0.000000  -0.000000
    30  H   -0.000000  -0.000000   0.000000  -0.000000   0.000000   0.000000
    31  H   -0.000000   0.000000   0.000000  -0.000000   0.000000   0.000000
    32  N   -0.000000  -0.000000   0.000000   0.000000   0.000000  -0.000000
    33  N   -0.000000  -0.000000   0.000000   0.000000   0.000000  -0.000000
    34  N   -0.077711   0.009067   0.005150  -0.005075  -0.000193  -0.000093
    35  N    0.009327  -0.083975  -0.000144  -0.000098   0.005424  -0.007334
    36  C   -0.000119  -0.003013   0.000009   0.000003  -0.000109   0.004206
    37  H   -0.000008   0.002633  -0.000002  -0.000000  -0.000007   0.000495
    38  H   -0.000008   0.002630  -0.000002  -0.000000  -0.000007   0.000493
    39  H    0.000006   0.000013  -0.000000  -0.000000   0.000001  -0.000030
    40  C    0.000000   0.000000  -0.000000   0.000000   0.000000  -0.000000
    41  H    0.000000   0.000000  -0.000000   0.000000  -0.000000  -0.000000
    42  H    0.000000   0.000000  -0.000000   0.000000  -0.000000  -0.000000
    43  H   -0.000000   0.000000  -0.000000   0.000000  -0.000000   0.000000
    44  Co  -0.000465  -0.000446  -0.000025   0.000054   0.000010   0.000024
              19         20         21         22         23         24
     1  C   -0.000000   0.000000   0.005888   0.006518  -0.000682   0.000175
     2  C    0.000000  -0.000000  -0.043706  -0.061611   0.007181  -0.004250
     3  C   -0.000000   0.000000  -0.004685   0.002448   0.000107   0.001661
     4  C    0.000000  -0.000000   0.000109   0.000037   0.000001   0.000054
     5  C    0.000001  -0.000000   0.000003  -0.000036  -0.000000  -0.000001
     6  C   -0.000003  -0.000000  -0.000032   0.001672   0.000001   0.000001
     7  H    0.000000  -0.000000   0.000430  -0.000155  -0.000039  -0.000040
     8  H    0.000000  -0.000000  -0.000002   0.000001  -0.000000   0.000002
     9  H   -0.000008   0.000000  -0.000000  -0.000000   0.000000  -0.000000
    10  C    0.001941   0.000905  -0.000000  -0.000006   0.000000   0.000000
    11  C    0.000003   0.000003  -0.000006  -0.011306  -0.000001   0.000000
    12  C    0.000931   0.002297   0.000000  -0.000001  -0.000000   0.000000
    13  C   -0.035861   0.004014   0.000000   0.000000   0.000000   0.000000
    14  C    0.003971  -0.036940  -0.000000   0.000000   0.000000  -0.000000
    15  C    0.368830  -0.036367  -0.000000  -0.000000   0.000000  -0.000000
    16  H   -0.003987  -0.000149   0.000000   0.000000  -0.000000   0.000000
    17  C   -0.035933   0.368151   0.000000  -0.000000  -0.000000   0.000000
    18  H   -0.000147  -0.004223   0.000000   0.000000  -0.000000   0.000000
    19  H    0.534132  -0.004593   0.000000   0.000000   0.000000  -0.000000
    20  H   -0.004593   0.538096   0.000000   0.000000   0.000000  -0.000000
    21  C    0.000000   0.000000   4.636260  -0.067739   0.514658   0.541143
    22  C    0.000000   0.000000  -0.067739   4.810952  -0.056222   0.004679
    23  C    0.000000   0.000000   0.514658  -0.056222   4.647252  -0.055459
    24  C   -0.000000  -0.000000   0.541143   0.004679  -0.055459   5.027224
    25  C   -0.000000   0.000000  -0.048551   0.005487   0.533711  -0.044510
    26  C    0.000000   0.000000  -0.006293  -0.000071  -0.037857   0.506966
    27  H   -0.000000  -0.000000  -0.034416  -0.000155   0.003744   0.355594
    28  C    0.000000   0.000000  -0.039382  -0.000077  -0.007846  -0.036168
    29  H    0.000000   0.000000   0.003968  -0.000206  -0.038097   0.000292
    30  H    0.000000   0.000000   0.001941   0.000003   0.000931  -0.035862
    31  H    0.000000   0.000000   0.000905   0.000003   0.002297   0.004014
    32  N    0.000000   0.000000   0.256461   0.340380  -0.038909  -0.077708
    33  N   -0.000000  -0.000000  -0.046082   0.305933   0.271824   0.009327
    34  N   -0.000089   0.000004   0.000000   0.000201   0.000000  -0.000000
    35  N    0.000004  -0.000099   0.000000   0.000017   0.000000  -0.000000
    36  C   -0.000000  -0.000002   0.000000   0.000013   0.000000   0.000000
    37  H   -0.000000  -0.000000  -0.000000  -0.000000  -0.000000   0.000000
    38  H   -0.000000  -0.000000  -0.000000  -0.000000  -0.000000   0.000000
    39  H   -0.000000  -0.000000  -0.000000  -0.000000  -0.000000  -0.000000
    40  C    0.000000  -0.000000   0.005672  -0.044046  -0.047283  -0.000119
    41  H   -0.000000   0.000000  -0.000132   0.000733  -0.001106  -0.000008
    42  H   -0.000000   0.000000  -0.000132   0.000739  -0.001111  -0.000008
    43  H    0.000000   0.000000   0.000017  -0.000371   0.002629   0.000006
    44  Co   0.000013  -0.000003   0.007872   0.390037   0.004848  -0.000465
              25         26         27         28         29         30
     1  C    0.000002   0.000001  -0.000027   0.000000  -0.000000  -0.000000
     2  C   -0.000041   0.000061   0.000841  -0.000001   0.000002  -0.000003
     3  C    0.000001   0.000070   0.000088  -0.000000  -0.000000   0.000001
     4  C   -0.000000  -0.000001   0.000094   0.000000   0.000000   0.000000
     5  C    0.000000   0.000000   0.000001   0.000000   0.000000  -0.000000
     6  C   -0.000000  -0.000000   0.000000   0.000000   0.000000   0.000000
     7  H    0.000000   0.000102   0.006161   0.000002  -0.000000  -0.000008
     8  H    0.000000   0.000000  -0.000010  -0.000000  -0.000000   0.000000
     9  H   -0.000000  -0.000000   0.000000   0.000000   0.000000   0.000000
    10  C   -0.000000  -0.000000   0.000000   0.000000   0.000000   0.000000
    11  C    0.000000  -0.000000   0.000000  -0.000000   0.000000   0.000000
    12  C    0.000000   0.000000  -0.000000  -0.000000  -0.000000   0.000000
    13  C   -0.000000  -0.000000   0.000000   0.000000   0.000000  -0.000000
    14  C   -0.000000   0.000000  -0.000000  -0.000000   0.000000  -0.000000
    15  C    0.000000  -0.000000  -0.000000   0.000000   0.000000   0.000000
    16  H   -0.000000  -0.000000   0.000000   0.000000  -0.000000  -0.000000
    17  C   -0.000000   0.000000   0.000000   0.000000   0.000000   0.000000
    18  H    0.000000   0.000000  -0.000000   0.000000  -0.000000   0.000000
    19  H   -0.000000   0.000000  -0.000000   0.000000   0.000000   0.000000
    20  H    0.000000   0.000000  -0.000000   0.000000   0.000000   0.000000
    21  C   -0.048551  -0.006293  -0.034416  -0.039382   0.003968   0.001941
    22  C    0.005487  -0.000071  -0.000155  -0.000077  -0.000206   0.000003
    23  C    0.533711  -0.037857   0.003744  -0.007846  -0.038097   0.000931
    24  C   -0.044510   0.506966   0.355594  -0.036168   0.000292  -0.035862
    25  C    5.037145  -0.038235   0.000456   0.515304   0.362248   0.003971
    26  C   -0.038235   4.899919  -0.035636   0.559471   0.003889   0.368830
    27  H    0.000456  -0.035636   0.518288   0.003699   0.000013  -0.003987
    28  C    0.515304   0.559471   0.003699   4.886329  -0.035525  -0.035933
    29  H    0.362248   0.003889   0.000013  -0.035525   0.536753  -0.000147
    30  H    0.003971   0.368830  -0.003987  -0.035933  -0.000147   0.534134
    31  H   -0.036941  -0.036367  -0.000149   0.368150  -0.004223  -0.004593
    32  N    0.009067   0.005150  -0.005075  -0.000193  -0.000093  -0.000089
    33  N   -0.083974  -0.000144  -0.000098   0.005424  -0.007334   0.000004
    34  N   -0.000000   0.000000   0.000000   0.000000  -0.000000   0.000000
    35  N   -0.000000   0.000000   0.000000   0.000000  -0.000000  -0.000000
    36  C    0.000000  -0.000000   0.000000   0.000000  -0.000000   0.000000
    37  H    0.000000  -0.000000   0.000000  -0.000000  -0.000000  -0.000000
    38  H    0.000000  -0.000000   0.000000  -0.000000  -0.000000  -0.000000
    39  H    0.000000  -0.000000   0.000000  -0.000000   0.000000   0.000000
    40  C   -0.003013   0.000009   0.000003  -0.000109   0.004206  -0.000000
    41  H    0.002630  -0.000002  -0.000000  -0.000007   0.000493  -0.000000
    42  H    0.002633  -0.000002  -0.000000  -0.000007   0.000495  -0.000000
    43  H    0.000013  -0.000000  -0.000000   0.000001  -0.000030  -0.000000
    44  Co  -0.000446  -0.000025   0.000054   0.000010   0.000024   0.000013
              31         32         33         34         35         36
     1  C    0.000000  -0.041197   0.001165  -0.041197   0.001165  -0.000005
     2  C   -0.000000   0.268307   0.006039   0.006122  -0.000032   0.000000
     3  C   -0.000000  -0.070246  -0.000155   0.000031   0.000000   0.000000
     4  C   -0.000000   0.004554   0.000001   0.004554   0.000001  -0.000000
     5  C    0.000000   0.000031   0.000000  -0.070246  -0.000155   0.000002
     6  C   -0.000000   0.006122  -0.000032   0.268306   0.006038  -0.000047
     7  H    0.000000  -0.003935   0.000002   0.000007  -0.000000  -0.000000
     8  H   -0.000000  -0.000092  -0.000000  -0.000092  -0.000000   0.000000
     9  H   -0.000000   0.000007  -0.000000  -0.003935   0.000002  -0.000000
    10  C    0.000000   0.000000   0.000000   0.256460  -0.046082   0.005672
    11  C    0.000000   0.000201   0.000017   0.340382   0.305933  -0.044047
    12  C    0.000000   0.000000   0.000000  -0.038908   0.271824  -0.047283
    13  C   -0.000000  -0.000000  -0.000000  -0.077711   0.009327  -0.000119
    14  C    0.000000  -0.000000  -0.000000   0.009067  -0.083975  -0.003013
    15  C    0.000000   0.000000   0.000000   0.005150  -0.000144   0.000009
    16  H   -0.000000   0.000000   0.000000  -0.005075  -0.000098   0.000003
    17  C    0.000000   0.000000   0.000000  -0.000193   0.005424  -0.000109
    18  H    0.000000  -0.000000  -0.000000  -0.000093  -0.007334   0.004206
    19  H    0.000000   0.000000  -0.000000  -0.000089   0.000004  -0.000000
    20  H    0.000000   0.000000  -0.000000   0.000004  -0.000099  -0.000002
    21  C    0.000905   0.256461  -0.046082   0.000000   0.000000   0.000000
    22  C    0.000003   0.340380   0.305933   0.000201   0.000017   0.000013
    23  C    0.002297  -0.038909   0.271824   0.000000   0.000000   0.000000
    24  C    0.004014  -0.077708   0.009327  -0.000000  -0.000000   0.000000
    25  C   -0.036941   0.009067  -0.083974  -0.000000  -0.000000   0.000000
    26  C   -0.036367   0.005150  -0.000144   0.000000   0.000000  -0.000000
    27  H   -0.000149  -0.005075  -0.000098   0.000000   0.000000   0.000000
    28  C    0.368150  -0.000193   0.005424   0.000000   0.000000   0.000000
    29  H   -0.004223  -0.000093  -0.007334  -0.000000  -0.000000  -0.000000
    30  H   -0.004593  -0.000089   0.000004   0.000000  -0.000000   0.000000
    31  H    0.538098   0.000004  -0.000099   0.000000  -0.000000  -0.000000
    32  N    0.000004   7.208365  -0.056031  -0.000055   0.000000   0.000000
    33  N   -0.000099  -0.056031   7.050802   0.000000  -0.000000  -0.000000
    34  N    0.000000  -0.000055   0.000000   7.208374  -0.056032   0.004512
    35  N   -0.000000   0.000000  -0.000000  -0.056032   7.050804   0.301084
    36  C   -0.000000   0.000000  -0.000000   0.004512   0.301084   5.052217
    37  H    0.000000   0.000000   0.000000  -0.000069  -0.041660   0.377259
    38  H    0.000000   0.000000   0.000000  -0.000069  -0.041666   0.377266
    39  H    0.000000  -0.000000   0.000000   0.000159  -0.032846   0.376562
    40  C   -0.000002   0.004512   0.301084   0.000000  -0.000000   0.000000
    41  H   -0.000000  -0.000069  -0.041666   0.000000   0.000000  -0.000000
    42  H   -0.000000  -0.000069  -0.041660   0.000000   0.000000  -0.000000
    43  H   -0.000000   0.000159  -0.032846  -0.000000   0.000000  -0.000001
    44  Co  -0.000003  -0.076590  -0.054803  -0.076590  -0.054803  -0.004396
              37         38         39         40         41         42
     1  C   -0.000000  -0.000000  -0.000020  -0.000005  -0.000000  -0.000000
     2  C   -0.000000  -0.000000   0.000001  -0.000047   0.000003   0.000003
     3  C    0.000000   0.000000   0.000000   0.000002  -0.000000  -0.000000
     4  C    0.000000   0.000000  -0.000000  -0.000000   0.000000   0.000000
     5  C   -0.000000  -0.000000   0.000000   0.000000   0.000000   0.000000
     6  C    0.000003   0.000003  -0.000009   0.000000  -0.000000  -0.000000
     7  H    0.000000   0.000000   0.000000  -0.000000   0.000000   0.000000
     8  H   -0.000000  -0.000000   0.000000   0.000000  -0.000000  -0.000000
     9  H    0.000000   0.000000   0.000000  -0.000000   0.000000   0.000000
    10  C   -0.000132  -0.000132   0.000017   0.000000  -0.000000  -0.000000
    11  C    0.000738   0.000733  -0.000371   0.000013  -0.000000  -0.000000
    12  C   -0.001110  -0.001107   0.002629   0.000000  -0.000000  -0.000000
    13  C   -0.000008  -0.000008   0.000006   0.000000   0.000000   0.000000
    14  C    0.002633   0.002630   0.000013   0.000000   0.000000   0.000000
    15  C   -0.000002  -0.000002  -0.000000  -0.000000  -0.000000  -0.000000
    16  H   -0.000000  -0.000000  -0.000000   0.000000   0.000000   0.000000
    17  C   -0.000007  -0.000007   0.000001   0.000000  -0.000000  -0.000000
    18  H    0.000495   0.000493  -0.000030  -0.000000  -0.000000  -0.000000
    19  H   -0.000000  -0.000000  -0.000000   0.000000  -0.000000  -0.000000
    20  H   -0.000000  -0.000000  -0.000000  -0.000000   0.000000   0.000000
    21  C   -0.000000  -0.000000  -0.000000   0.005672  -0.000132  -0.000132
    22  C   -0.000000  -0.000000  -0.000000  -0.044046   0.000733   0.000739
    23  C   -0.000000  -0.000000  -0.000000  -0.047283  -0.001106  -0.001111
    24  C    0.000000   0.000000  -0.000000  -0.000119  -0.000008  -0.000008
    25  C    0.000000   0.000000   0.000000  -0.003013   0.002630   0.002633
    26  C   -0.000000  -0.000000  -0.000000   0.000009  -0.000002  -0.000002
    27  H    0.000000   0.000000   0.000000   0.000003  -0.000000  -0.000000
    28  C   -0.000000  -0.000000  -0.000000  -0.000109  -0.000007  -0.000007
    29  H   -0.000000  -0.000000   0.000000   0.004206   0.000493   0.000495
    30  H   -0.000000  -0.000000   0.000000  -0.000000  -0.000000  -0.000000
    31  H    0.000000   0.000000   0.000000  -0.000002  -0.000000  -0.000000
    32  N    0.000000   0.000000  -0.000000   0.004512  -0.000069  -0.000069
    33  N    0.000000   0.000000   0.000000   0.301084  -0.041666  -0.041660
    34  N   -0.000069  -0.000069   0.000159   0.000000   0.000000   0.000000
    35  N   -0.041660  -0.041666  -0.032846  -0.000000   0.000000   0.000000
    36  C    0.377259   0.377266   0.376562   0.000000  -0.000000  -0.000000
    37  H    0.524754  -0.040353  -0.025581  -0.000000  -0.000000   0.000000
    38  H   -0.040353   0.524758  -0.025592  -0.000000   0.000000  -0.000000
    39  H   -0.025581  -0.025592   0.479176  -0.000001   0.000000   0.000000
    40  C   -0.000000  -0.000000  -0.000001   5.052217   0.377266   0.377259
    41  H   -0.000000   0.000000   0.000000   0.377266   0.524758  -0.040353
    42  H    0.000000  -0.000000   0.000000   0.377259  -0.040353   0.524754
    43  H    0.000000   0.000000  -0.000021   0.376562  -0.025593  -0.025581
    44  Co   0.001100   0.001103   0.008228  -0.004396   0.001103   0.001099
              43         44
     1  C   -0.000020   0.249149
     2  C   -0.000009  -0.057290
     3  C    0.000000   0.003961
     4  C   -0.000000   0.003456
     5  C    0.000000   0.003961
     6  C    0.000001  -0.057290
     7  H    0.000000  -0.000677
     8  H    0.000000   0.000121
     9  H    0.000000  -0.000677
    10  C   -0.000000   0.007872
    11  C   -0.000000   0.390035
    12  C   -0.000000   0.004848
    13  C   -0.000000  -0.000465
    14  C    0.000000  -0.000446
    15  C   -0.000000  -0.000025
    16  H    0.000000   0.000054
    17  C   -0.000000   0.000010
    18  H    0.000000   0.000024
    19  H    0.000000   0.000013
    20  H    0.000000  -0.000003
    21  C    0.000017   0.007872
    22  C   -0.000371   0.390037
    23  C    0.002629   0.004848
    24  C    0.000006  -0.000465
    25  C    0.000013  -0.000446
    26  C   -0.000000  -0.000025
    27  H   -0.000000   0.000054
    28  C    0.000001   0.000010
    29  H   -0.000030   0.000024
    30  H   -0.000000   0.000013
    31  H   -0.000000  -0.000003
    32  N    0.000159  -0.076590
    33  N   -0.032846  -0.054803
    34  N   -0.000000  -0.076590
    35  N    0.000000  -0.054803
    36  C   -0.000001  -0.004396
    37  H    0.000000   0.001100
    38  H    0.000000   0.001103
    39  H   -0.000021   0.008228
    40  C    0.376562  -0.004396
    41  H   -0.025593   0.001103
    42  H   -0.025581   0.001099
    43  H    0.479177   0.008228
    44  Co   0.008228  16.352049
          Atomic-Atomic Spin Densities.
               1          2          3          4          5          6
     1  C   -0.409747  -0.006687   0.006081   0.008977   0.006081  -0.006687
     2  C   -0.006687   0.086489   0.002714  -0.002419   0.001474   0.000500
     3  C    0.006081   0.002714  -0.075999  -0.005037  -0.000041   0.001474
     4  C    0.008977  -0.002419  -0.005037   0.083901  -0.005037  -0.002419
     5  C    0.006081   0.001474  -0.000041  -0.005037  -0.075998   0.002715
     6  C   -0.006687   0.000500   0.001474  -0.002419   0.002715   0.086488
     7  H   -0.001084   0.000563   0.004967   0.002082  -0.000047  -0.000106
     8  H   -0.000156   0.000010  -0.000051   0.000420  -0.000051   0.000010
     9  H   -0.001084  -0.000106  -0.000047   0.002082   0.004967   0.000563
    10  C   -0.000328  -0.000018   0.000001   0.000017   0.000423   0.000280
    11  C    0.006913  -0.000786   0.000006   0.000023  -0.000157  -0.006135
    12  C    0.000082   0.000000   0.000000  -0.000000  -0.000008   0.000008
    13  C    0.000015   0.000000  -0.000000   0.000002  -0.000295  -0.000399
    14  C    0.000000   0.000000  -0.000000  -0.000000  -0.000001  -0.000020
    15  C   -0.000000   0.000000   0.000000  -0.000000   0.000002   0.000006
    16  H   -0.000002  -0.000000  -0.000000   0.000003   0.000095   0.000066
    17  C   -0.000000  -0.000000   0.000000  -0.000000   0.000000   0.000002
    18  H    0.000000  -0.000000   0.000000   0.000000   0.000000   0.000000
    19  H    0.000000   0.000000  -0.000000  -0.000000   0.000000   0.000000
    20  H   -0.000000   0.000000  -0.000000  -0.000000  -0.000000  -0.000000
    21  C   -0.000328   0.000280   0.000423   0.000017   0.000001  -0.000018
    22  C    0.006913  -0.006135  -0.000157   0.000023   0.000006  -0.000786
    23  C    0.000082   0.000008  -0.000008  -0.000000   0.000000   0.000000
    24  C    0.000015  -0.000399  -0.000295   0.000002  -0.000000   0.000000
    25  C    0.000000  -0.000020  -0.000001  -0.000000  -0.000000   0.000000
    26  C   -0.000000   0.000006   0.000002  -0.000000   0.000000   0.000000
    27  H   -0.000002   0.000066   0.000095   0.000003  -0.000000  -0.000000
    28  C   -0.000000   0.000002   0.000000  -0.000000   0.000000  -0.000000
    29  H    0.000000   0.000000   0.000000   0.000000   0.000000  -0.000000
    30  H    0.000000   0.000000   0.000000  -0.000000  -0.000000   0.000000
    31  H   -0.000000  -0.000000  -0.000000  -0.000000  -0.000000   0.000000
    32  N    0.002806   0.012370   0.005074   0.000127   0.000050  -0.000163
    33  N   -0.000677   0.000338  -0.000017  -0.000000  -0.000000   0.000003
    34  N    0.002806  -0.000163   0.000050   0.000127   0.005074   0.012370
    35  N   -0.000677   0.000003  -0.000000  -0.000000  -0.000017   0.000338
    36  C   -0.000021   0.000000  -0.000000  -0.000000  -0.000000  -0.000004
    37  H    0.000001  -0.000000   0.000000   0.000000   0.000000  -0.000001
    38  H    0.000001  -0.000000   0.000000   0.000000   0.000000  -0.000001
    39  H    0.000015  -0.000000   0.000000   0.000000   0.000000   0.000000
    40  C   -0.000021  -0.000004  -0.000000  -0.000000  -0.000000   0.000000
    41  H    0.000001  -0.000001   0.000000   0.000000   0.000000  -0.000000
    42  H    0.000001  -0.000001   0.000000   0.000000   0.000000  -0.000000
    43  H    0.000015   0.000000   0.000000   0.000000   0.000000  -0.000000
    44  Co   0.017243  -0.010141  -0.001850   0.000905  -0.001850  -0.010141
               7          8          9         10         11         12
     1  C   -0.001084  -0.000156  -0.001084  -0.000328   0.006913   0.000082
     2  C    0.000563   0.000010  -0.000106  -0.000018  -0.000786   0.000000
     3  C    0.004967  -0.000051  -0.000047   0.000001   0.000006   0.000000
     4  C    0.002082   0.000420   0.002082   0.000017   0.000023  -0.000000
     5  C   -0.000047  -0.000051   0.004967   0.000423  -0.000157  -0.000008
     6  C   -0.000106   0.000010   0.000563   0.000280  -0.006135   0.000008
     7  H   -0.010189  -0.000164  -0.000027  -0.000000   0.000000  -0.000000
     8  H   -0.000164  -0.004002  -0.000164  -0.000000   0.000000   0.000000
     9  H   -0.000027  -0.000164  -0.010189  -0.000135   0.000015   0.000001
    10  C   -0.000000  -0.000000  -0.000135  -0.004704   0.001684  -0.002060
    11  C    0.000000   0.000000   0.000015   0.001684   0.201732  -0.002289
    12  C   -0.000000   0.000000   0.000001  -0.002060  -0.002289  -0.028864
    13  C    0.000000   0.000000   0.000190   0.004470   0.000266   0.000616
    14  C    0.000000   0.000000   0.000001   0.000939   0.000561  -0.000355
    15  C    0.000000   0.000000   0.000006  -0.000772  -0.000027   0.000227
    16  H   -0.000000  -0.000000  -0.000194  -0.000189   0.000000  -0.000006
    17  C   -0.000000  -0.000000  -0.000000   0.000133  -0.000013  -0.000218
    18  H   -0.000000  -0.000000  -0.000000  -0.000011  -0.000003  -0.000091
    19  H   -0.000000  -0.000000  -0.000000   0.000001  -0.000000  -0.000008
    20  H    0.000000   0.000000   0.000000  -0.000004   0.000000   0.000014
    21  C   -0.000135  -0.000000  -0.000000  -0.000000   0.000001  -0.000000
    22  C    0.000015   0.000000   0.000000   0.000001   0.001470   0.000000
    23  C    0.000001   0.000000  -0.000000  -0.000000   0.000000   0.000000
    24  C    0.000190   0.000000   0.000000   0.000000   0.000000   0.000000
    25  C    0.000001   0.000000   0.000000   0.000000   0.000000   0.000000
    26  C    0.000006   0.000000   0.000000  -0.000000  -0.000000   0.000000
    27  H   -0.000194  -0.000000  -0.000000  -0.000000  -0.000000  -0.000000
    28  C   -0.000000  -0.000000  -0.000000  -0.000000  -0.000000   0.000000
    29  H   -0.000000  -0.000000  -0.000000   0.000000   0.000000  -0.000000
    30  H   -0.000000  -0.000000  -0.000000  -0.000000  -0.000000   0.000000
    31  H    0.000000   0.000000   0.000000   0.000000  -0.000000  -0.000000
    32  N   -0.000768  -0.000002  -0.000002  -0.000000  -0.000053  -0.000000
    33  N    0.000003   0.000000   0.000000   0.000000  -0.000002   0.000000
    34  N   -0.000002  -0.000002  -0.000768  -0.001326  -0.032570   0.001536
    35  N    0.000000   0.000000   0.000003  -0.000726  -0.040804   0.008884
    36  C    0.000000   0.000000   0.000000  -0.000029   0.001201   0.000383
    37  H   -0.000000  -0.000000  -0.000000   0.000003   0.000417  -0.000163
    38  H   -0.000000  -0.000000  -0.000000   0.000003   0.000418  -0.000164
    39  H   -0.000000  -0.000000  -0.000000   0.000001  -0.000798  -0.000068
    40  C    0.000000   0.000000   0.000000   0.000000   0.000000  -0.000000
    41  H   -0.000000  -0.000000  -0.000000   0.000000   0.000000  -0.000000
    42  H   -0.000000  -0.000000  -0.000000   0.000000   0.000000  -0.000000
    43  H   -0.000000  -0.000000  -0.000000  -0.000000  -0.000000   0.000000
    44  Co   0.000403   0.000036   0.000403   0.001433   0.059548   0.000050
              13         14         15         16         17         18
     1  C    0.000015   0.000000  -0.000000  -0.000002  -0.000000   0.000000
     2  C    0.000000   0.000000   0.000000  -0.000000  -0.000000  -0.000000
     3  C   -0.000000  -0.000000   0.000000  -0.000000   0.000000   0.000000
     4  C    0.000002  -0.000000  -0.000000   0.000003  -0.000000   0.000000
     5  C   -0.000295  -0.000001   0.000002   0.000095   0.000000   0.000000
     6  C   -0.000399  -0.000020   0.000006   0.000066   0.000002   0.000000
     7  H    0.000000   0.000000   0.000000  -0.000000  -0.000000  -0.000000
     8  H    0.000000   0.000000   0.000000  -0.000000  -0.000000  -0.000000
     9  H    0.000190   0.000001   0.000006  -0.000194  -0.000000  -0.000000
    10  C    0.004470   0.000939  -0.000772  -0.000189   0.000133  -0.000011
    11  C    0.000266   0.000561  -0.000027   0.000000  -0.000013  -0.000003
    12  C    0.000616  -0.000355   0.000227  -0.000006  -0.000218  -0.000091
    13  C    0.019498   0.000979  -0.009582   0.000262  -0.001143  -0.000005
    14  C    0.000979   0.052432  -0.002163  -0.000001  -0.006469   0.000094
    15  C   -0.009582  -0.002163   0.031156   0.000007   0.005865  -0.000003
[...]
 
              Baa    -0.0040    -2.147    -0.766    -0.716 -0.0218  0.3426  0.9392
    41 H(1)   Bbb    -0.0026    -1.373    -0.490    -0.458 -0.6417  0.7156 -0.2759
              Bcc     0.0066     3.521     1.256     1.174  0.7666  0.6088 -0.2042
 
              Baa    -0.0040    -2.147    -0.766    -0.716  0.0220 -0.3426  0.9392
    42 H(1)   Bbb    -0.0026    -1.373    -0.490    -0.458 -0.6417  0.7155  0.2760
              Bcc     0.0066     3.520     1.256     1.174  0.7666  0.6088  0.2041
 
              Baa    -0.0080    -4.253    -1.518    -1.419  0.0002 -0.0003  1.0000
    43 H(1)   Bbb    -0.0069    -3.690    -1.317    -1.231  0.7412 -0.6713 -0.0004
              Bcc     0.0149     7.943     2.834     2.650  0.6713  0.7412  0.0001
 
              Baa    -0.7208   -91.023   -32.479   -30.362  1.0000  0.0000  0.0000
    44 Co(59) Bbb    -0.1362   -17.194    -6.135    -5.735 -0.0000  1.0000 -0.0000
              Bcc     0.8570   108.216    38.614    36.097 -0.0000  0.0000  1.0000
 

 ---------------------------------------------------------------------------------

   1 Symmetry operations used in ECPInt.
 ECPInt:  NShTT=   11781 NPrTT=   71406 LenC2=    9510 LenP2D=   31986.
 LDataN:  DoStor=T MaxTD1= 7 Len=  274
 Calling FoFJK, ICntrl=      2127 FMM=F ISym2X=0 I1Cent= 0 IOpClX= 1 NMat=1 NMatS=1 NMatT=0.
 -------------------------------------------------------------------
 Center     Atomic                   Forces (Hartrees/Bohr)
 Number     Number              X              Y              Z
 -------------------------------------------------------------------
      1        6           0.000000303   -0.073508722   -0.000002436
      2        6           0.053381559    0.031981452    0.000002878
      3        6          -0.005968778    0.002350788    0.000000486
      4        6          -0.000002631    0.000896083   -0.000000262
      5        6           0.005973712    0.002355681    0.000000348
      6        6          -0.053379746    0.031972750    0.000002026
      7        1           0.000277684    0.003825890   -0.000000716
      8        1           0.000000233   -0.000982292   -0.000000620
      9        1          -0.000280077    0.003824596   -0.000000880
     10        6          -0.008615903   -0.005293691    0.000000896
     11        6          -0.000179795    0.003637789   -0.000012958
     12        6           0.009919449    0.005023043   -0.000000317
     13        6           0.009613965    0.002963312   -0.000001267
     14        6           0.001028235    0.003638263   -0.000000423
     15        6          -0.009993832    0.005147439    0.000000502
     16        1           0.000326600    0.000070671   -0.000000379
     17        6           0.000400846   -0.008633830   -0.000000146
     18        1           0.000667038    0.000497775    0.000000140
     19        1           0.000079922   -0.000174857   -0.000000067
     20        1          -0.000239889    0.000125894    0.000000242
     21        6           0.008606683   -0.005267411    0.000000116
     22        6           0.000182975    0.003638153   -0.000014912
     23        6          -0.009928231    0.005012463   -0.000000519
     24        6          -0.009612409    0.002938871   -0.000000904
     25        6          -0.001023196    0.003648333   -0.000001006
     26        6           0.010001226    0.005163341    0.000000082
     27        1          -0.000324147    0.000078481   -0.000000172
     28        6          -0.000406261   -0.008649285    0.000000060
     29        1          -0.000668468    0.000494056   -0.000000139
     30        1          -0.000079338   -0.000177018   -0.000000109
     31        1           0.000242217    0.000127008    0.000000251
     32        7          -0.016705790   -0.045724880    0.000006278
     33        7           0.020298103    0.016041510    0.000008682
     34        7           0.016705107   -0.045715347    0.000004093
     35        7          -0.020296905    0.016042266    0.000006769
     36        6          -0.000072848   -0.007518993   -0.000000983
     37        1           0.000680579    0.001558853    0.000566435
     38        1           0.000680119    0.001558692   -0.000566397
     39        1           0.000605926    0.001385201    0.000000802
     40        6           0.000073181   -0.007518300   -0.000001022
     41        1          -0.000680004    0.001559188   -0.000566271
     42        1          -0.000680741    0.001558979    0.000566121
     43        1          -0.000605982    0.001385245    0.000000860
     44       27          -0.000000692    0.048662561    0.000004839
 -------------------------------------------------------------------
 Cartesian Forces:  Max     0.073508722 RMS     0.013185899

 GradGradGradGradGradGradGradGradGradGradGradGradGradGradGradGradGradGrad
 Berny optimization.
 Search for a local minimum.
 Step number   1 out of a maximum of    2
 All quantities printed in internal units (Hartrees-Bohrs-Radians)
 Second derivative matrix not updated -- first step.
 ITU=  0
     Eigenvalues ---    0.00054   0.00056   0.00197   0.00242   0.00243
     Eigenvalues ---    0.00381   0.00436   0.00608   0.00650   0.00661
     Eigenvalues ---    0.00667   0.00809   0.00842   0.01315   0.01556
     Eigenvalues ---    0.01795   0.02016   0.02029   0.02529   0.02529
     Eigenvalues ---    0.03042   0.03079   0.04093   0.04194   0.04396
     Eigenvalues ---    0.04483   0.04659   0.05363   0.05518   0.06065
     Eigenvalues ---    0.06136   0.06894   0.06927   0.07023   0.07053
     Eigenvalues ---    0.07055   0.07260   0.07670   0.07740   0.09565
     Eigenvalues ---    0.09806   0.10062   0.10326   0.11424   0.11884
     Eigenvalues ---    0.11945   0.12065   0.12204   0.12796   0.13342
     Eigenvalues ---    0.13343   0.13415   0.13624   0.14700   0.15293
     Eigenvalues ---    0.15412   0.15850   0.19289   0.19748   0.19987
     Eigenvalues ---    0.20953   0.21872   0.23961   0.24336   0.28503
     Eigenvalues ---    0.29427   0.29496   0.30091   0.30668   0.31518
     Eigenvalues ---    0.31706   0.34609   0.34978   0.36389   0.36980
     Eigenvalues ---    0.37471   0.41080   0.41552   0.44284   0.46851
     Eigenvalues ---    0.48109   0.48295   0.49195   0.50785   0.51354
     Eigenvalues ---    0.52837   0.53444   0.53868   0.59663   0.62375
     Eigenvalues ---    0.68508   0.71207   0.72538   0.73762   0.86451
     Eigenvalues ---    0.90222   0.90838   0.91129   0.92564   0.94311
     Eigenvalues ---    0.95063   0.96695   0.99655   1.03832   1.12031
     Eigenvalues ---    1.15568   1.15596   1.18213   1.20487   1.23952
     Eigenvalues ---    1.30668   1.37709   1.37754   1.45254   1.46733
     Eigenvalues ---    1.49372   1.50550   1.53266   1.60364   1.63888
     Eigenvalues ---    1.65545   1.66621   1.77620   1.78746   1.83924
     Eigenvalues ---    1.87746
 Quadratic step=5.406D-01 exceeds max=3.000D-01 adjusted using Lamda=-2.228D-02.
 Angle between NR and scaled steps=  29.40 degrees.
 Angle between quadratic step and forces=  49.56 degrees.
 Linear search not attempted -- first point.
 B after Tr=    -0.000000   -0.000713   -0.000001
         Rot=    1.000000   -0.000000   -0.000000   -0.000000 Ang=  -0.00 deg.
 Variable       Old X    -DE/DX   Delta X   Delta X   Delta X     New X
                                 (Linear)    (Quad)   (Total)
    X1        0.00000   0.00000   0.00000   0.00000   0.00000   0.00000
    Y1        1.53369  -0.07351   0.00000  -0.14946  -0.15017   1.38351
    Z1        0.00018  -0.00000   0.00000  -0.00001  -0.00001   0.00018
    X2       -2.42971   0.05338   0.00000   0.07851   0.07851  -2.35120
    Y2        2.57187   0.03198   0.00000  -0.02704  -0.02775   2.54412
    Z2        0.00005   0.00000   0.00000   0.00002   0.00002   0.00007
    X3       -2.35554  -0.00597   0.00000   0.02231   0.02231  -2.33323
    Y3        5.21406   0.00235   0.00000  -0.01232  -0.01303   5.20103
    Z3       -0.00003   0.00000   0.00000   0.00002   0.00002  -0.00001
    X4        0.00001  -0.00000   0.00000  -0.00000  -0.00000   0.00000
    Y4        6.43893   0.00090   0.00000   0.00685   0.00614   6.44507
    Z4        0.00000  -0.00000   0.00000   0.00000   0.00001   0.00001
    X5        2.35555   0.00597   0.00000  -0.02231  -0.02231   2.33323
    Y5        5.21406   0.00236   0.00000  -0.01231  -0.01303   5.20103
    Z5        0.00006   0.00000   0.00000   0.00001   0.00001   0.00007
    X6        2.42972  -0.05338   0.00000  -0.07851  -0.07851   2.35121
    Y6        2.57188   0.03197   0.00000  -0.02704  -0.02776   2.54412
    Z6        0.00012   0.00000   0.00000   0.00002   0.00002   0.00013
    X7       -4.07932   0.00028   0.00000   0.02169   0.02169  -4.05763
    Y7        6.32008   0.00383   0.00000  -0.00151  -0.00222   6.31786
    Z7       -0.00008  -0.00000   0.00000   0.00000   0.00000  -0.00007
    X8        0.00000   0.00000   0.00000  -0.00000  -0.00000   0.00000
    Y8        8.49457  -0.00098   0.00000   0.00383   0.00312   8.49769
    Z8       -0.00001  -0.00000   0.00000  -0.00002  -0.00002  -0.00003
    X9        4.07933  -0.00028   0.00000  -0.02170  -0.02170   4.05763
    Y9        6.32007   0.00382   0.00000  -0.00150  -0.00222   6.31786
    Z9        0.00008  -0.00000   0.00000  -0.00001  -0.00001   0.00008
   X10        6.99300  -0.00862   0.00000  -0.03673  -0.03673   6.95626
   Y10        1.09948  -0.00529   0.00000  -0.01128  -0.01199   1.08749
   Z10       -0.00007   0.00000   0.00000   0.00001   0.00001  -0.00006
   X11        3.64387  -0.00018   0.00000  -0.04222  -0.04222   3.60165
   Y11       -1.72663   0.00364   0.00000   0.00837   0.00766  -1.71897
   Z11        0.00027  -0.00001   0.00000  -0.00005  -0.00005   0.00021
   X12        7.93377   0.00992   0.00000  -0.02178  -0.02178   7.91199
   Y12       -1.40405   0.00502   0.00000   0.00752   0.00681  -1.39725
   Z12       -0.00018  -0.00000   0.00000   0.00001   0.00001  -0.00018
   X13        8.61570   0.00961   0.00000  -0.02683  -0.02683   8.58887
   Y13        3.14392   0.00296   0.00000  -0.00160  -0.00232   3.14160
   Z13       -0.00012  -0.00000   0.00000  -0.00001  -0.00000  -0.00013
   X14       10.51462   0.00103   0.00000  -0.02133  -0.02133  10.49330
   Y14       -1.88498   0.00364   0.00000   0.00326   0.00255  -1.88242
   Z14       -0.00037  -0.00000   0.00000   0.00001   0.00001  -0.00037
   X15       11.23122  -0.00999   0.00000  -0.03875  -0.03875  11.19247
   Y15        2.65474   0.00515   0.00000  -0.00064  -0.00135   2.65339
   Z15       -0.00033   0.00000   0.00000  -0.00000  -0.00000  -0.00033
   X16        7.91720   0.00033   0.00000  -0.01714  -0.01714   7.90005
   Y16        5.06820   0.00007   0.00000   0.00133   0.00062   5.06882
   Z16        0.00000  -0.00000   0.00000  -0.00001  -0.00001  -0.00001
   X17       12.15122   0.00040   0.00000  -0.02482  -0.02482  12.12639
   Y17        0.20015  -0.00863   0.00000  -0.00651  -0.00722   0.19293
   Z17       -0.00046  -0.00000   0.00000   0.00000   0.00000  -0.00046
   X18       11.22747   0.00067   0.00000  -0.01176  -0.01176  11.21571
   Y18       -3.80923   0.00050   0.00000   0.00683   0.00612  -3.80311
   Z18       -0.00045   0.00000   0.00000   0.00001   0.00001  -0.00044
   X19       12.53495   0.00008   0.00000  -0.03373  -0.03373  12.50122
   Y19        4.23901  -0.00017   0.00000  -0.00311  -0.00382   4.23519
   Z19       -0.00037  -0.00000   0.00000  -0.00001  -0.00000  -0.00038
   X20       14.17813  -0.00024   0.00000  -0.02323  -0.02323  14.15491
   Y20       -0.12688   0.00013   0.00000  -0.00104  -0.00175  -0.12863
   Z20       -0.00062   0.00000   0.00000   0.00001   0.00001  -0.00061
   X21       -6.99298   0.00861   0.00000   0.03672   0.03672  -6.95626
   Y21        1.09945  -0.00527   0.00000  -0.01126  -0.01198   1.08748
   Z21       -0.00009   0.00000   0.00000   0.00001   0.00001  -0.00008
   X22       -3.64386   0.00018   0.00000   0.04222   0.04222  -3.60164
   Y22       -1.72664   0.00364   0.00000   0.00837   0.00766  -1.71898
   Z22        0.00021  -0.00001   0.00000  -0.00005  -0.00005   0.00016
   X23       -7.93375  -0.00993   0.00000   0.02177   0.02177  -7.91198
   Y23       -1.40406   0.00501   0.00000   0.00752   0.00680  -1.39725
   Z23       -0.00014  -0.00000   0.00000   0.00001   0.00001  -0.00013
   X24       -8.61570  -0.00961   0.00000   0.02683   0.02683  -8.58887
   Y24        3.14392   0.00294   0.00000  -0.00161  -0.00233   3.14160
   Z24       -0.00011  -0.00000   0.00000  -0.00000  -0.00000  -0.00011
   X25      -10.51461  -0.00102   0.00000   0.02133   0.02133 -10.49329
   Y25       -1.88500   0.00365   0.00000   0.00327   0.00255  -1.88244
   Z25       -0.00019  -0.00000   0.00000  -0.00000  -0.00000  -0.00020
   X26      -11.23122   0.01000   0.00000   0.03876   0.03876 -11.19247
   Y26        2.65471   0.00516   0.00000  -0.00063  -0.00135   2.65337
   Z26       -0.00019   0.00000   0.00000  -0.00001  -0.00000  -0.00020
   X27       -7.91720  -0.00032   0.00000   0.01715   0.01715  -7.90005
   Y27        5.06818   0.00008   0.00000   0.00134   0.00063   5.06881
   Z27       -0.00005  -0.00000   0.00000  -0.00001  -0.00000  -0.00005
   X28      -12.15121  -0.00041   0.00000   0.02482   0.02482 -12.12639
   Y28        0.20014  -0.00865   0.00000  -0.00652  -0.00723   0.19291
   Z28       -0.00024   0.00000   0.00000  -0.00000  -0.00000  -0.00024
   X29      -11.22746  -0.00067   0.00000   0.01176   0.01176 -11.21570
   Y29       -3.80924   0.00049   0.00000   0.00683   0.00611  -3.80313
   Z29       -0.00019  -0.00000   0.00000  -0.00000  -0.00001  -0.00019
   X30      -12.53496  -0.00008   0.00000   0.03374   0.03374 -12.50122
   Y30        4.23899  -0.00018   0.00000  -0.00311  -0.00382   4.23517
   Z30       -0.00021  -0.00000   0.00000  -0.00001  -0.00001  -0.00021
   X31      -14.17813   0.00024   0.00000   0.02323   0.02323 -14.15490
   Y31       -0.12690   0.00013   0.00000  -0.00104  -0.00175  -0.12865
   Z31       -0.00029   0.00000   0.00000   0.00000   0.00000  -0.00029
   X32       -4.36889  -0.01671   0.00000   0.03227   0.03227  -4.33662
   Y32        0.88696  -0.04572   0.00000  -0.04877  -0.04948   0.83748
   Z32        0.00004   0.00001   0.00000   0.00002   0.00002   0.00006
   X33       -5.91752   0.02030   0.00000   0.05504   0.05504  -5.86248
   Y33       -3.03412   0.01604   0.00000   0.02709   0.02638  -3.00774
   Z33       -0.00008   0.00001   0.00000   0.00002   0.00001  -0.00007
   X34        4.36890   0.01671   0.00000  -0.03227  -0.03227   4.33663
   Y34        0.88696  -0.04572   0.00000  -0.04876  -0.04947   0.83748
   Z34        0.00014   0.00000   0.00000   0.00001   0.00001   0.00015
   X35        5.91753  -0.02030   0.00000  -0.05503  -0.05503   5.86249
   Y35       -3.03411   0.01604   0.00000   0.02709   0.02638  -3.00773
   Z35       -0.00005   0.00001   0.00000   0.00001   0.00000  -0.00005
   X36        6.06970  -0.00007   0.00000  -0.02500  -0.02500   6.04470
   Y36       -5.72999  -0.00752   0.00000   0.01608   0.01536  -5.71463
   Z36        0.00002  -0.00000   0.00000   0.00001   0.00000   0.00002
   X37        7.04356   0.00068   0.00000  -0.00529  -0.00529   7.03827
   Y37       -6.44070   0.00156   0.00000   0.03823   0.03752  -6.40319
   Z37       -1.68756   0.00057   0.00000   0.00305   0.00304  -1.68451
   X38        7.04264   0.00068   0.00000  -0.00530  -0.00530   7.03734
   Y38       -6.44074   0.00156   0.00000   0.03822   0.03750  -6.40324
   Z38        1.68812  -0.00057   0.00000  -0.00302  -0.00303   1.68509
   X39        4.14955   0.00061   0.00000  -0.01480  -0.01480   4.13475
   Y39       -6.49378   0.00139   0.00000   0.00125   0.00053  -6.49324
   Z39       -0.00055   0.00000   0.00000   0.00001   0.00000  -0.00055
   X40       -6.06969   0.00007   0.00000   0.02500   0.02500  -6.04469
   Y40       -5.73000  -0.00752   0.00000   0.01608   0.01536  -5.71463
   Z40        0.00009  -0.00000   0.00000   0.00001   0.00001   0.00009
   X41       -7.04250  -0.00068   0.00000   0.00530   0.00530  -7.03720
   Y41       -6.44071   0.00156   0.00000   0.03822   0.03751  -6.40320
   Z41        1.68828  -0.00057   0.00000  -0.00302  -0.00303   1.68525
   X42       -7.04367  -0.00068   0.00000   0.00529   0.00529  -7.03838
   Y42       -6.44077   0.00156   0.00000   0.03824   0.03753  -6.40324
   Z42       -1.68740   0.00057   0.00000   0.00305   0.00305  -1.68435
   X43       -4.14954  -0.00061   0.00000   0.01481   0.01481  -4.13473
   Y43       -6.49378   0.00139   0.00000   0.00125   0.00053  -6.49325
   Z43       -0.00061   0.00000   0.00000   0.00001   0.00000  -0.00060
   X44        0.00001  -0.00000   0.00000  -0.00000  -0.00000   0.00001
   Y44       -2.40951   0.04866   0.00000   0.10140   0.10069  -2.30883
   Z44        0.00024   0.00000   0.00000  -0.00004  -0.00004   0.00019
         Item               Value     Threshold  Converged?
 Maximum Force            0.073509     0.000450     NO 
 RMS     Force            0.013186     0.000300     NO 
 Maximum Displacement     0.150175     0.001800     NO 
 RMS     Displacement     0.026114     0.001200     NO 
 Predicted change in Energy=-1.574694D-02
 GradGradGradGradGradGradGradGradGradGradGradGradGradGradGradGradGradGrad

 Unable to Open any file for archive entry.
 1\1\GINC-X11P1N5\Force\UPBE1PBE\GenECP\C22H17Co1N4(3)\MAYUMIAO\17-Jul-
 2024\0\\# pbe1pbe em=gd3bj genecp g09default scf=(xqc,maxcycle=64) for
 ce guess=read nosymm\\Title Card\\0,3\C,0.00000148,0.81159326,0.000096
 6\C,-1.28574783,1.3609755,0.00002583\C,-1.24649977,2.75916138,-0.00001
 462\C,0.00000333,3.4073362,0.00000109\C,1.24650251,2.75915958,0.000030
 43\C,1.28574981,1.36097981,0.00006146\H,-2.15868123,3.34444071,-0.0000
 4184\H,0.00000183,4.4951352,-0.00000717\H,2.15868875,3.34443882,0.0000
 4402\C,3.70053418,0.58182088,-0.00003578\C,1.92825247,-0.91369474,0.00
 014216\C,4.19836941,-0.74299379,-0.00009666\C,4.55923354,1.66369054,-0
 .00006455\C,5.56409879,-0.99748593,-0.00019811\C,5.94330502,1.4048279,
 -0.00017305\H,4.18959919,2.68197777,0.00000251\C,6.43014826,0.1059144,
 -0.0002442\H,5.94132339,-2.01575817,-0.00023621\H,6.6332113,2.24318638
 ,-0.000197\H,7.5027457,-0.0671394,-0.00032915\C,-3.70052691,0.58180551
 ,-0.00004706\C,-1.92824826,-0.9136979,0.00011015\C,-4.19835988,-0.7429
 9561,-0.00007421\C,-4.55923323,1.66369287,-0.00005925\C,-5.56409417,-0
 .99749657,-0.00010171\C,-5.94330687,1.4048135,-0.00010291\H,-4.1896005
 6,2.6819676,-0.00002576\C,-6.43014182,0.10591081,-0.00012586\H,-5.9413
 1478,-2.01576355,-0.00009798\H,-6.63321257,2.24317685,-0.00010969\H,-7
 .50274173,-0.06715224,-0.00015436\N,-2.31191805,0.46935863,0.00001915\
 N,-3.13141454,-1.60558775,-0.00004436\N,2.31192204,0.46935645,0.000076
 61\N,3.13142076,-1.60558301,-0.00002544\C,3.21194885,-3.03217906,0.000
 01045\H,3.72729357,-3.40827262,-0.89301701\H,3.72680631,-3.40829387,0.
 89331409\H,2.19584944,-3.43635808,-0.00028865\C,-3.21194153,-3.0321850
 4,0.0000455\H,-3.72673149,-3.40827703,0.89339834\H,-3.72735207,-3.4083
 0677,-0.89293116\H,-2.19584127,-3.43636217,-0.00032061\Co,0.00000409,-
 1.27505988,0.00012573\\Version=ES64L-G16RevC.01\HF=-1212.1106368\S2=2.
 356571\S2-1=0.\S2A=2.009195\RMSD=4.610e-09\RMSF=1.319e-02\Dipole=0.000
 03,-1.3275387,-0.000041\Quadrupole=8.5291325,10.8915075,-19.42064,0.00
 00708,-0.0003375,-0.0000288\PG=C01 [X(C22H17Co1N4)]\\@
 The archive entry for this job was punched.


 "THE TIME HAS COME", THE WALRUS SAID,
 "TO TALK OF MANY THINGS,
 OF SHOES AND SHIPS AND SEALING WAX,
 OF CABBAGES AND KINGS,
 AND WHY THE SEA IS BOILING HOT,
 AND WHETHER PIGS HAVE WINGS."
 Job cpu time:       0 days  0 hours 38 minutes 40.0 seconds.
 Elapsed time:       0 days  0 hours  0 minutes 42.2 seconds.
 File lengths (MBytes):  RWF=    184 Int=      0 D2E=      0 Chk=     72 Scr=      1
 Normal termination of Gaussian 16 at Wed Jul 17 21:24:26 2024.
