 Entering Gaussian System, Link 0=g16
 Input=JOBS/36_B.gjf
 Output=JOBS/36_B.log
 Initial command:
 /data/app/gaussian/C01-avx2//g16/l1.exe "/tmp/Gau-2098908.inp" -scrdir="/tmp/"
 Entering Link 1 = /data/app/gaussian/C01-avx2//g16/l1.exe PID=   2098909.
  
 Copyright (c) 1988-2019, Gaussian, Inc.  All Rights Reserved.
  
 This is part of the Gaussian(R) 16 program.  It is based on
 the Gaussian(R) 09 system (copyright 2009, Gaussian, Inc.),
 the Gaussian(R) 03 system (copyright 2003, Gaussian, Inc.),
 the Gaussian(R) 98 system (copyright 1998, Gaussian, Inc.),
 the Gaussian(R) 94 system (copyright 1995, Gaussian, Inc.),
 the Gaussian 92(TM) system (copyright 1992, Gaussian, Inc.),
 the Gaussian 90(TM) system (copyright 1990, Gaussian, Inc.),
 the Gaussian 88(TM) system (copyright 1988, Gaussian, Inc.),
 the Gaussian 86(TM) system (copyright 1986, Carnegie Mellon
 University), and the Gaussian 82(TM) system (copyright 1983,
 Carnegie Mellon University). Gaussian is a federally registered
 trademark of Gaussian, Inc.
  
 This software contains proprietary and confidential information,
 including trade secrets, belonging to Gaussian, Inc.
  
 This software is provided under written license and may be
 used, copied, transmitted, or stored only in accord with that
 written license.
  
 The following legend is applicable only to US Government
 contracts under FAR:
  
                    RESTRICTED RIGHTS LEGEND
  
 Use, reproduction and disclosure by the US Government is
 subject to restrictions as set forth in subparagraphs (a)
 and (c) of the Commercial Computer Software - Restricted
 Rights clause in FAR 52.227-19.
  
 Gaussian, Inc.
 340 Quinnipiac St., Bldg. 40, Wallingford CT 06492
  
  
 ---------------------------------------------------------------
 Warning -- This program may not be used in any manner that
 competes with the business of Gaussian, Inc. or will provide
 assistance to any competitor of Gaussian, Inc.  The licensee
 of this program is prohibited from giving any competitor of
 Gaussian, Inc. access to this program.  By using this program,
 the user acknowledges that Gaussian, Inc. is engaged in the
 business of creating and licensing software in the field of
 computational chemistry and represents and warrants to the
 licensee that it is not a competitor of Gaussian, Inc. and that
 it will not use this program in any manner prohibited above.
 ---------------------------------------------------------------
  

 Cite this work as:
 Gaussian 16, Revision C.01,
 M. J. Frisch, G. W. Trucks, H. B. Schlegel, G. E. Scuseria, 
 M. A. Robb, J. R. Cheeseman, G. Scalmani, V. Barone, 
 G. A. Petersson, H. Nakatsuji, X. Li, M. Caricato, A. V. Marenich, 
 J. Bloino, B. G. Janesko, R. Gomperts, B. Mennucci, H. P. Hratchian, 
 J. V. Ortiz, A. F. Izmaylov, J. L. Sonnenberg, D. Williams-Young, 
 F. Ding, F. Lipparini, F. Egidi, J. Goings, B. Peng, A. Petrone, 
 T. Henderson, D. Ranasinghe, V. G. Zakrzewski, J. Gao, N. Rega, 
 G. Zheng, W. Liang, M. Hada, M. Ehara, K. Toyota, R. Fukuda, 
 J. Hasegawa, M. Ishida, T. Nakajima, Y. Honda, O. Kitao, H. Nakai, 
 T. Vreven, K. Throssell, J. A. Montgomery, Jr., J. E. Peralta, 
 F. Ogliaro, M. J. Bearpark, J. J. Heyd, E. N. Brothers, K. N. Kudin, 
 V. N. Staroverov, T. A. Keith, R. Kobayashi, J. Normand, 
 K. Raghavachari, A. P. Rendell, J. C. Burant, S. S. Iyengar, 
 J. Tomasi, M. Cossi, J. M. Millam, M. Klene, C. Adamo, R. Cammi, 
 J. W. Ochterski, R. L. Martin, K. Morokuma, O. Farkas, 
 J. B. Foresman, and D. J. Fox, Gaussian, Inc., Wallingford CT, 2019.
 
 ******************************************
 Gaussian 16:  ES64L-G16RevC.01  3-Jul-2019
                17-Jul-2024 
 ******************************************
 %chk=b.chk
 %nprocshared=56
 Will use up to   56 processors via shared memory.
 %mem=96gb
 ----------------------------------------------------------------------
 # pbe1pbe em=gd3bj genecp g09default scf=(xqc,maxcycle=64) force guess
 =read nosymm
 ----------------------------------------------------------------------
 1/10=7,30=1,38=1,158=3,167=1/1,3;
 2/12=2,15=1,17=6,18=5,40=1/2;
 3/5=7,11=2,16=1,17=8,25=1,27=10,30=1,71=1,74=-13,75=-4,116=-2,124=41,158=3/1,2,3;
 4/5=1,60=-1/1;
 5/5=2,7=64,8=3,13=1,38=6,87=10/2,8;
 6/7=2,8=2,9=2,10=2,28=1,87=10/1;
 7/29=1,30=1,87=10/1,2,3,16;
 1/10=7,30=1,158=3,167=1/3;
 99//99;
 Using 2006 physical constants.
 ----------
 Title Card
 ----------
 Symbolic Z-matrix:
 Charge =  0 Multiplicity = 3
 6                    0.         0.80511   0.00009 
 6                    -1.28617   1.35833   0.00003 
 6                    -1.24663   2.75567  -0.00001 
 6                     0.00001   3.4016   0. 
 6                     1.24662   2.75567   0.00003 
 6                     1.28617   1.35834   0.00007 
 1                    -2.15588   3.34586  -0.00005 
 1                     0.        4.48959  -0.00001 
 1                     2.15588   3.34586   0.00004 
 6                     3.70525   0.58266  -0.00004 
 6                     1.93208  -0.91352   0.00014 
 6                     4.20441  -0.74181  -0.0001 
 6                     4.56649   1.66303  -0.00007 
 6                     5.57109  -0.9956   -0.0002 
 6                     5.95014   1.4047   -0.00018 
 1                     4.20082   2.68252  0. 
 6                     6.43803   0.1065   -0.00025 
 1                     5.95283  -2.01194  -0.00023 
 1                     6.63981   2.24252  -0.0002 
 1                     7.51102  -0.06442  -0.00033 
 6                    -3.70524   0.58263  -0.00005 
 6                    -1.93208  -0.91353   0.00011 
 6                    -4.20439  -0.7418   -0.00008 
 6                    -4.56649   1.66304  -0.00006 
 6                    -5.5711   -0.99562  -0.00011 
 6                    -5.95014   1.40467  -0.00011 
 1                    -4.20082   2.68251  -0.00003 
 6                    -6.43802   0.10651  -0.00013 
 1                    -5.95282  -2.01194  -0.0001 
 1                    -6.63981   2.24251  -0.00011 
 1                    -7.51102  -0.06443  -0.00015 
 7                    -2.31593   0.46956   0.00003 
 7                    -3.13701  -1.60571  -0.00004 
 7                     2.31593   0.46956   0.00009 
 7                     3.13701  -1.6057   -0.00002 
 6                     3.22015  -3.03138   0.00001 
 1                     3.73624  -3.40841  -0.89258 
 1                     3.73573  -3.40845   0.8929 
 1                     2.20436  -3.4368   -0.0003 
 6                    -3.22014  -3.03138   0.00005 
 1                    -3.73565  -3.40843   0.89298 
 1                    -3.7363   -3.40845  -0.8925 
 1                    -2.20435  -3.43681  -0.00034 
 27                    0.       -1.26877   0.00013 
 

 GradGradGradGradGradGradGradGradGradGradGradGradGradGradGradGradGradGrad
 Berny optimization.
 Initialization pass.
 Trust Radius=3.00D-01 FncErr=1.00D-07 GrdErr=1.00D-07 EigMax=2.50D+02 EigMin=1.00D-04
 Number of steps in this run=      2 maximum allowed number of steps=      2.
 GradGradGradGradGradGradGradGradGradGradGradGradGradGradGradGradGradGrad

                          Input orientation:                          
 ---------------------------------------------------------------------
 Center     Atomic      Atomic             Coordinates (Angstroms)
 Number     Number       Type             X           Y           Z
 ---------------------------------------------------------------------
      1          6           0       -0.000000    0.805107    0.000092
      2          6           0       -1.286165    1.358334    0.000035
      3          6           0       -1.246626    2.755675   -0.000010
      4          6           0        0.000006    3.401601   -0.000002
      5          6           0        1.246623    2.755673    0.000031
      6          6           0        1.286173    1.358339    0.000067
      7          1           0       -2.155877    3.345859   -0.000046
      8          1           0        0.000002    4.489588   -0.000011
      9          1           0        2.155885    3.345859    0.000036
     10          6           0        3.705251    0.582659   -0.000040
     11          6           0        1.932081   -0.913525    0.000140
     12          6           0        4.204415   -0.741809   -0.000099
     13          6           0        4.566489    1.663029   -0.000071
     14          6           0        5.571095   -0.995596   -0.000200
     15          6           0        5.950138    1.404700   -0.000177
     16          1           0        4.200817    2.682520   -0.000002
     17          6           0        6.438032    0.106502   -0.000246
     18          1           0        5.952832   -2.011940   -0.000232
     19          1           0        6.639808    2.242520   -0.000197
     20          1           0        7.511022   -0.064420   -0.000328
     21          6           0       -3.705243    0.582631   -0.000051
     22          6           0       -1.932078   -0.913526    0.000110
     23          6           0       -4.204394   -0.741801   -0.000080
     24          6           0       -4.566486    1.663043   -0.000065
     25          6           0       -5.571098   -0.995616   -0.000106
     26          6           0       -5.950142    1.404669   -0.000106
     27          1           0       -4.200819    2.682507   -0.000027
     28          6           0       -6.438021    0.106512   -0.000128
     29          1           0       -5.952822   -2.011944   -0.000095
     30          1           0       -6.639808    2.242513   -0.000110
     31          1           0       -7.511021   -0.064434   -0.000153
     32          7           0       -2.315930    0.469564    0.000035
     33          7           0       -3.137009   -1.605708   -0.000040
     34          7           0        2.315931    0.469562    0.000087
     35          7           0        3.137009   -1.605704   -0.000018
     36          6           0        3.220146   -3.031375    0.000013
     37          1           0        3.736240   -3.408413   -0.892583
     38          1           0        3.735729   -3.408447    0.892896
     39          1           0        2.204360   -3.436802   -0.000305
     40          6           0       -3.220136   -3.031382    0.000048
     41          1           0       -3.735652   -3.408426    0.892983
     42          1           0       -3.736301   -3.408448   -0.892495
     43          1           0       -2.204352   -3.436807   -0.000339
     44         27           0        0.000001   -1.268766    0.000132
 ---------------------------------------------------------------------
                    Distance matrix (angstroms):
                    1          2          3          4          5
     1  C    0.000000
     2  C    1.400100   0.000000
     3  C    2.314906   1.397900   0.000000
     4  C    2.596494   2.414368   1.404034   0.000000
     5  C    2.314904   2.892675   2.493249   1.404022   0.000000
     6  C    1.400110   2.572338   2.892683   2.414362   1.397893
     7  H    3.332150   2.169482   1.084000   2.156603   3.453306
     8  H    3.684482   3.385111   2.135542   1.087988   2.135539
     9  H    3.332156   3.974665   3.453316   2.156599   1.084009
    10  C    3.711923   5.051327   5.407687   4.655671   3.281286
    11  C    2.585852   3.939347   4.854606   4.727919   3.732675
    12  C    4.479961   5.878526   6.476591   5.902957   4.580492
    13  C    4.646381   5.860580   5.914911   4.886246   3.495051
    14  C    5.854881   7.250034   7.781602   7.097349   5.724776
    15  C    5.980272   7.236451   7.322468   6.276279   4.893687
    16  H    4.601255   5.644506   5.447934   4.261912   2.955100
    17  C    6.475825   7.824980   8.128474   7.232279   5.828279
    18  H    6.585739   7.985100   8.634948   8.046276   6.699144
    19  H    6.793615   7.975138   7.903110   6.740210   5.417542
    20  H    7.561187   8.911495   9.200507   8.272162   6.869907
    21  C    3.711916   2.540404   3.281298   4.655691   5.407688
    22  C    2.585850   2.361896   3.732677   4.727924   4.854602
    23  C    4.479939   3.595362   4.580473   5.902945   6.476567
    24  C    4.646380   3.294443   3.495042   4.886250   5.914903
    25  C    5.854889   4.888940   5.724792   7.097374   7.781612
    26  C    5.980273   4.664207   4.893698   6.276305   7.322475
    27  H    4.601251   3.201350   2.955099   4.261928   5.447934
    28  C    6.475812   5.301761   5.828262   7.232275   8.128456
    29  H    6.585731   5.756428   6.699139   8.046280   8.634939
    30  H    6.793613   5.426164   5.417541   6.740223   7.903109
    31  H    7.561186   6.385382   6.869910   8.272178   9.200507
    32  N    2.340111   1.360268   2.523829   3.736362   4.232975
    33  N    3.956368   3.494449   4.753442   5.908808   6.183678
    34  N    2.340113   3.710123   4.232980   3.736356   2.523830
    35  N    3.956367   5.324472   6.183679   5.908798   4.753437
    36  C    5.008786   6.290977   7.310403   7.193920   6.114304
    37  H    5.701764   6.981633   7.976316   7.818723   6.707526
    38  H    5.701474   6.981320   7.976060   7.818545   6.707401
    39  H    4.780480   5.931028   7.089151   7.184910   6.266099
    40  C    5.008784   4.796858   6.114308   7.193927   7.310399
    41  H    5.701421   5.433171   6.707371   7.818505   7.975998
    42  H    5.701815   5.433414   6.707565   7.818779   7.976373
    43  H    4.780481   4.882259   6.266105   7.184916   7.089149
    44  Co   2.073872   2.925043   4.213098   4.670367   4.213095
                    6          7          8          9         10
     6  C    0.000000
     7  H    3.974662   0.000000
     8  H    3.385108   2.440477   0.000000
     9  H    2.169477   4.311761   2.440481   0.000000
    10  C    2.540397   6.479822   5.384511   3.167934   0.000000
    11  C    2.361898   5.903706   5.738167   4.265259   2.320064
    12  C    3.595380   7.560578   6.711528   4.572253   1.415408
    13  C    3.294436   6.929799   5.370497   2.939886   1.381640
    14  C    4.888922   8.863087   7.818204   5.523756   2.443821
    15  C    4.664195   8.335200   6.702287   4.261978   2.390662
    16  H    3.201344   6.391211   4.573002   2.149830   2.157545
    17  C    5.301768   9.184155   7.788432   5.369378   2.773954
    18  H    5.756430   9.718907   8.815104   6.566796   3.432720
    19  H    5.426157   8.864616   7.009731   4.617675   3.371463
    20  H    6.385373  10.250802   8.783759   6.348819   3.860390
    21  C    5.051332   3.167960   5.384530   6.479834   7.410494
    22  C    3.939354   4.265261   5.738169   5.903710   5.832499
    23  C    5.878514   4.572242   6.711512   7.560563   8.019768
    24  C    5.860586   2.939882   5.370491   6.929801   8.341994
    25  C    7.250053   5.523780   7.818224   8.863107   9.409655
    26  C    7.236464   4.262003   6.702309   8.335220   9.690321
    27  H    5.644511   2.149843   4.573012   6.391222   8.180177
    28  C    7.824975   5.369369   7.788420   9.184148  10.154441
    29  H    7.985103   6.566799   8.815103   9.718908  10.000517
    30  H    7.975145   4.617685   7.009738   8.864625  10.477373
    31  H    8.911504   6.348832   8.783768  10.250813  11.234923
    32  N    3.710130   2.880745   4.639411   5.316973   6.022243
    33  N    5.324483   5.047835   6.855179   7.247947   7.183695
    34  N    1.360267   5.316968   4.639411   2.880746   1.393915
    35  N    3.494445   7.247939   6.855174   5.047829   2.260937
    36  C    4.796858   8.340907   8.181334   6.465428   3.646447
    37  H    5.433376   9.007433   8.782630   6.993889   4.089774
    38  H    5.433205   9.007165   8.782477   6.993837   4.089890
    39  H    4.882258   8.063259   8.227202   6.782834   4.290541
    40  C    6.290984   6.465435   8.181337   8.340911   7.811676
    41  H    6.981266   6.993823   8.782436   9.007104   8.490776
    42  H    6.981703   6.993917   8.782680   9.007504   8.491296
    43  H    5.931037   6.782839   8.227206   8.063264   7.146994
    44  Co   2.925050   5.093385   5.758354   5.093387   4.142059
                   11         12         13         14         15
    11  C    0.000000
    12  C    2.278812   0.000000
    13  C    3.684933   2.431942   0.000000
    14  C    3.639939   1.390044   2.842097   0.000000
    15  C    4.638851   2.766776   1.407557   2.430039   0.000000
    16  H    4.251905   3.424331   1.083087   3.925072   2.166321
    17  C    4.619962   2.389284   2.434225   1.402213   1.386852
    18  H    4.168087   2.161063   3.927766   1.085670   3.416641
    19  H    5.667742   3.851929   2.152780   3.409918   1.085167
    20  H    5.643187   3.375279   3.413848   2.151838   2.143519
    21  C    5.832487   8.019777   8.341991   9.409635   9.690313
    22  C    3.864159   6.138895   6.990709   7.503621   8.216051
    23  C    6.138878   8.408809   9.094592   9.778783  10.378920
    24  C    6.990714   9.094615   9.132975  10.480406  10.519797
    25  C    7.503628   9.778807  10.480413  11.142192  11.768619
    26  C    8.216050  10.378940  10.519804  11.768609  11.900280
    27  H    7.109424   9.076006   8.826382  10.441204  10.231066
    28  C    8.432027  10.676192  11.114044  12.059581  12.455993
    29  H    7.961044  10.236342  11.142770  11.568648  12.383614
    30  H    9.134432  11.247370  11.221269  12.632952  12.617791
    31  H    9.481199  11.735002  12.200425  13.115213  13.541091
    32  N    4.467497   6.631917   6.985130   8.021960   8.318795
    33  N    5.116131   7.392079   8.368305   8.729450   9.572815
    34  N    1.435364   2.243611   2.547425   3.569702   3.752591
    35  N    1.389591   1.373197   3.567636   2.509383   4.120221
    36  C    2.478791   2.492168   4.883653   3.109881   5.208802
    37  H    3.205684   2.850701   5.215881   3.159862   5.372503
    38  H    3.205433   2.850977   5.216074   3.160386   5.372855
    39  H    2.537925   3.356070   5.620314   4.158652   6.121355
    40  C    5.570517   7.769562   9.092251   9.023866  10.186891
    41  H    6.256589   8.423366   9.769480   9.655830  10.852577
    42  H    6.257156   8.423912   9.769986   9.656379  10.853097
    43  H    4.845311   6.952360   8.476592   8.149668   9.483454
    44  Co   1.964467   4.237308   5.426623   5.577787   6.523154
                   16         17         18         19         20
    16  H    0.000000
    17  C    3.411891   0.000000
    18  H    5.010739   2.173296   0.000000
    19  H    2.478361   2.145527   4.309567   0.000000
    20  H    4.301527   1.086518   2.494152   2.465966   0.000000
    21  C    8.180179  10.154444  10.000510  10.477371  11.234914
    22  C    7.109427   8.432034   7.961050   9.134432   9.481198
    23  C    9.075988  10.676182  10.236332  11.247350  11.734983
    24  C    8.826378  11.114057  11.142781  11.221266  12.200424
    25  C   10.441217  12.059597  11.568659  12.632962  13.115220
    26  C   10.231074  12.456007  12.383619  12.617798  13.541092
    27  H    8.401636  10.946276  11.186351  10.849552  12.029665
    28  C   10.946264  12.876053  12.570643  13.251118  13.950090
    29  H   11.186348  12.570644  11.905654  13.291907  13.603969
    30  H   10.849551  13.251130  13.291913  13.279615  14.337640
    31  H   12.029668  13.950101  13.603974  14.337642  15.022044
    32  N    6.882236   8.761488   8.633092   9.129546   9.841450
    33  N    8.498976   9.726926   9.098914  10.506903  10.759003
    34  N    2.906884   4.138059   4.402828   4.673252   5.222462
    35  N    4.418207   3.718656   2.844975   5.203694   4.637623
    36  C    5.797440   4.494560   2.916645   6.285544   5.216747
    37  H    6.173492   4.522232   2.767618   6.415614   5.121269
    38  H    6.173610   4.522723   2.768295   6.415974   5.121837
    39  H    6.436765   5.520778   4.010146   7.206101   6.287577
    40  C    9.365854  10.155124   9.229442  11.181795  11.133761
    41  H   10.044132  10.800761   9.829279  11.848254  11.767245
    42  H   10.044615  10.801298   9.829835  11.848766  11.767785
    43  H    8.858463   9.340549   8.280694  10.510657  10.284041
    44  Co   5.767106   6.583283   5.999042   7.511069   7.606963
                   21         22         23         24         25
    21  C    0.000000
    22  C    2.320043   0.000000
    23  C    1.415370   2.278796   0.000000
    24  C    1.381677   3.684945   2.431952   0.000000
    25  C    2.443824   3.639946   1.390072   2.842132   0.000000
    26  C    2.390674   4.638844   2.766762   1.407573   2.430030
    27  H    2.157562   4.251898   3.424310   1.083060   3.925080
    28  C    2.773943   4.619957   2.389293   2.434221   1.402228
    29  H    3.432700   4.168082   2.161079   3.927780   1.085650
    30  H    3.371480   5.667742   3.851931   2.152776   3.409930
    31  H    3.860394   5.643188   3.375294   3.413863   2.151837
    32  N    1.393906   1.435368   2.243592   2.547430   3.569716
    33  N    2.260911   1.389595   1.373188   3.567652   2.509383
    34  N    6.022236   4.467495   6.631896   6.985132   8.021968
    35  N    7.183678   5.116127   7.392059   8.368307   8.729452
    36  C    7.811661   5.570520   7.769553   9.092261   9.023873
    37  H    8.491214   6.257091   8.423838   9.769929   9.656326
    38  H    8.490826   6.256655   8.423417   9.769554   9.655891
    39  H    7.146974   4.845311   6.952349   8.476602   8.149671
    40  C    3.646425   2.478791   2.492176   4.883676   3.109881
    41  H    4.089861   3.205406   2.850994   5.216093   3.160399
    42  H    4.089759   3.205714   2.850706   5.215905   3.159841
    43  H    4.290519   2.537928   3.356073   5.620334   4.158652
    44  Co   4.142041   1.964465   4.237290   5.426630   5.577791
                   26         27         28         29         30
    26  C    0.000000
    27  H    2.166333   0.000000
    28  C    1.386808   3.411864   0.000000
    29  H    3.416614   5.010726   2.173309   0.000000
    30  H    1.085182   2.478358   2.145511   4.309565   0.000000
    31  H    2.143503   4.301525   1.086532   2.494149   2.465971
    32  N    3.752589   2.906875   4.138048   4.402825   4.673250
    33  N    4.120205   4.418199   3.718653   2.844966   5.203691
    34  N    8.318798   6.882235   8.761477   8.633085   9.129546
    35  N    9.572809   8.498969   9.726915   9.098905  10.506899
    36  C   10.186888   9.365851  10.155123   9.229441  11.181797
    37  H   10.853031  10.044544  10.801238   9.829780  11.848706
    38  H   10.852633  10.044194  10.800815   9.829327  11.848315
    39  H    9.483446   8.858457   9.340547   8.280691  10.510657
    40  C    5.208789   5.797436   4.494570   2.916647   6.285548
    41  H    5.372845   6.173598   4.522746   2.768320   6.415984
    42  H    5.372481   6.173493   4.522229   2.767593   6.415611
    43  H    6.121343   6.436760   5.520784   4.010145   7.206104
    44  Co   6.523148   5.767100   6.583275   5.999035   7.511068
                   31         32         33         34         35
    31  H    0.000000
    32  N    5.222464   0.000000
    33  N    4.637619   2.231799   0.000000
    34  N    9.841450   4.631861   5.834493   0.000000
    35  N   10.758999   5.834491   6.274018   2.231793   0.000000
    36  C   11.133764   6.550169   6.515055   3.615822   1.428093
    37  H   11.767732   7.243220   7.161559   4.225261   2.098931
    38  H   11.767300   7.242841   7.161126   4.225150   2.098963
    39  H   10.284041   5.974338   5.646514   3.907957   2.054934
    40  C    5.216750   3.615828   1.428095   6.550164   6.515048
    41  H    5.121854   4.225136   2.098965   7.242770   7.161056
    42  H    5.121252   4.225286   2.098928   7.243285   7.161619
    43  H    6.287578   3.907964   2.054938   5.974336   5.646511
    44  Co   7.606962   2.895743   3.155053   2.895741   3.155051
                   36         37         38         39         40
    36  C    0.000000
    37  H    1.097833   0.000000
    38  H    1.097839   1.785480   0.000000
    39  H    1.093706   1.773026   1.773049   0.000000
    40  C    6.440282   7.023540   7.023063   5.439625   0.000000
    41  H    7.023011   7.682279   7.471381   6.006872   1.097840
    42  H    7.023596   7.472540   7.682373   6.007350   1.097833
    43  H    5.439628   6.007290   6.006932   4.408712   1.093703
    44  Co   3.670985   4.397103   4.396695   3.091857   3.670981
                   41         42         43         44
    41  H    0.000000
    42  H    1.785479   0.000000
    43  H    1.773051   1.773024   0.000000
    44  Co   4.396638   4.397155   3.091857   0.000000
 Symmetry turned off by external request.
 Stoichiometry    C22H17CoN4(3)
 Framework group  C1[X(C22H17CoN4)]
 Deg. of freedom   126
 Full point group                 C1      NOp   1
 Rotational constants (GHZ):           0.4613059           0.0996205           0.0820133
 General basis read from cards:  (5D, 7F)
 ======================================================================================================
                                       Pseudopotential Parameters
 ======================================================================================================
  Center     Atomic      Valence      Angular      Power
  Number     Number     Electrons     Momentum     of R      Exponent        Coefficient   SO-Coeffient
 ======================================================================================================
    1          6
                                   No pseudopotential on this center.
    2          6
                                   No pseudopotential on this center.
    3          6
                                   No pseudopotential on this center.
    4          6
                                   No pseudopotential on this center.
    5          6
                                   No pseudopotential on this center.
    6          6
                                   No pseudopotential on this center.
    7          1
                                   No pseudopotential on this center.
    8          1
                                   No pseudopotential on this center.
    9          1
                                   No pseudopotential on this center.
   10          6
                                   No pseudopotential on this center.
   11          6
                                   No pseudopotential on this center.
   12          6
                                   No pseudopotential on this center.
   13          6
                                   No pseudopotential on this center.
   14          6
                                   No pseudopotential on this center.
   15          6
                                   No pseudopotential on this center.
   16          1
                                   No pseudopotential on this center.
   17          6
                                   No pseudopotential on this center.
   18          1
                                   No pseudopotential on this center.
   19          1
                                   No pseudopotential on this center.
   20          1
                                   No pseudopotential on this center.
   21          6
                                   No pseudopotential on this center.
   22          6
                                   No pseudopotential on this center.
   23          6
                                   No pseudopotential on this center.
   24          6
                                   No pseudopotential on this center.
   25          6
                                   No pseudopotential on this center.
   26          6
                                   No pseudopotential on this center.
   27          1
                                   No pseudopotential on this center.
   28          6
                                   No pseudopotential on this center.
   29          1
                                   No pseudopotential on this center.
   30          1
                                   No pseudopotential on this center.
   31          1
                                   No pseudopotential on this center.
   32          7
                                   No pseudopotential on this center.
   33          7
                                   No pseudopotential on this center.
   34          7
                                   No pseudopotential on this center.
   35          7
                                   No pseudopotential on this center.
   36          6
                                   No pseudopotential on this center.
   37          1
                                   No pseudopotential on this center.
   38          1
                                   No pseudopotential on this center.
   39          1
                                   No pseudopotential on this center.
   40          6
                                   No pseudopotential on this center.
   41          1
                                   No pseudopotential on this center.
   42          1
                                   No pseudopotential on this center.
   43          1
                                   No pseudopotential on this center.
   44         27           17
                                      F and up 
                                                     2        1.0000000        0.00000000    0.00000000
                                      S - F
                                                     2       23.6600000      283.96056600    0.00000000
                                                     2       10.6100000       47.15684600    0.00000000
                                      P - F
                                                     2       25.0400000      182.21223600    0.00000000
                                                     2       10.4400000       35.23335200    0.00000000
                                      D - F
                                                     2       29.5400000      -26.47533300    0.00000000
                                                     2       10.1800000       -1.82578700    0.00000000
 ======================================================================================================
   441 basis functions,   871 primitive gaussians,   473 cartesian basis functions
    98 alpha electrons       96 beta electrons
       nuclear repulsion energy      2478.3078994384 Hartrees.
 NAtoms=   44 NActive=   44 NUniq=   44 SFac= 1.00D+00 NAtFMM=   60 NAOKFM=F Big=F
 Integral buffers will be    131072 words long.
 Raffenetti 2 integral format.
 Two-electron integral symmetry is turned off.
 Nuclear repulsion after empirical dispersion term =     2478.2489162227 Hartrees.
 One-electron integrals computed using PRISM.
   1 Symmetry operations used in ECPInt.
 ECPInt:  NShTT=   11781 NPrTT=   71406 LenC2=    9502 LenP2D=   31966.
 LDataN:  DoStor=T MaxTD1= 6 Len=  172
 NBasis=   441 RedAO= T EigKep=  3.23D-04  NBF=   441
 NBsUse=   441 1.00D-06 EigRej= -1.00D+00 NBFU=   441
 Initial guess from the checkpoint file:  "b.chk"
 B after Tr=    -0.000000    0.001571    0.000000
         Rot=    1.000000   -0.000000    0.000000    0.000000 Ang=  -0.00 deg.
 Initial guess <Sx>= 0.0000 <Sy>= 0.0000 <Sz>= 1.0000 <S**2>= 2.3633 S= 1.1166
 Requested convergence on RMS density matrix=1.00D-08 within  64 cycles.
 Requested convergence on MAX density matrix=1.00D-06.
 Requested convergence on             energy=1.00D-06.
 No special actions if energy rises.
 Restarting incremental Fock formation.
 SCF Done:  E(UPBE1PBE) =  -1212.11161876     A.U. after   24 cycles
            NFock= 24  Conv=0.26D-08     -V/T= 2.0553
 <Sx>= 0.0000 <Sy>= 0.0000 <Sz>= 1.0000 <S**2>= 2.3481 S= 1.1119
 <L.S>=  0.00000000000    
 Annihilation of the first spin contaminant:
 S**2 before annihilation     2.3481,   after     2.0090
 QCSCF skips out because SCF is already converged.

 **********************************************************************

            Population analysis using the SCF Density.

 **********************************************************************

 Alpha  occ. eigenvalues --  -14.45282 -14.45282 -14.45155 -14.45155 -10.28120
 Alpha  occ. eigenvalues --  -10.28120 -10.27513 -10.27513 -10.27248 -10.27248
 Alpha  occ. eigenvalues --  -10.27195 -10.27195 -10.26761 -10.26761 -10.23660
 Alpha  occ. eigenvalues --  -10.23660 -10.23574 -10.23574 -10.23069 -10.23069
 Alpha  occ. eigenvalues --  -10.22971 -10.22971 -10.22499 -10.22486 -10.22399
 Alpha  occ. eigenvalues --  -10.21114  -3.93421  -2.45278  -2.43723  -2.43271
 Alpha  occ. eigenvalues --   -1.05619  -1.05541  -0.97030  -0.96642  -0.88025
 Alpha  occ. eigenvalues --   -0.87619  -0.85623  -0.80418  -0.78828  -0.77607
 Alpha  occ. eigenvalues --   -0.77600  -0.75522  -0.74824  -0.73226  -0.72341
 Alpha  occ. eigenvalues --   -0.66721  -0.65279  -0.64352  -0.64090  -0.62631
 Alpha  occ. eigenvalues --   -0.61311  -0.58930  -0.57597  -0.56568  -0.53944
 Alpha  occ. eigenvalues --   -0.53059  -0.52301  -0.49649  -0.49567  -0.49098
 Alpha  occ. eigenvalues --   -0.48572  -0.48071  -0.47248  -0.46748  -0.45851
 Alpha  occ. eigenvalues --   -0.45673  -0.45337  -0.44817  -0.44790  -0.44080
 Alpha  occ. eigenvalues --   -0.42760  -0.41866  -0.41288  -0.38913  -0.38520
 Alpha  occ. eigenvalues --   -0.38454  -0.37507  -0.37303  -0.37166  -0.36916
 Alpha  occ. eigenvalues --   -0.36331  -0.35070  -0.34557  -0.33951  -0.31973
 Alpha  occ. eigenvalues --   -0.31262  -0.30415  -0.26881  -0.26604  -0.26498
 Alpha  occ. eigenvalues --   -0.26055  -0.26020  -0.24521  -0.24239  -0.22928
 Alpha  occ. eigenvalues --   -0.20924  -0.20721  -0.10091
 Alpha virt. eigenvalues --   -0.06379  -0.03004  -0.00279  -0.00064   0.00345
 Alpha virt. eigenvalues --    0.02228   0.02750   0.03403   0.03788   0.05619
 Alpha virt. eigenvalues --    0.06115   0.07582   0.07590   0.09633   0.10190
 Alpha virt. eigenvalues --    0.12534   0.12999   0.13778   0.13929   0.14844
 Alpha virt. eigenvalues --    0.15162   0.15331   0.15733   0.15967   0.16512
 Alpha virt. eigenvalues --    0.16896   0.17675   0.17805   0.17886   0.18098
 Alpha virt. eigenvalues --    0.19375   0.19803   0.19818   0.19887   0.20997
 Alpha virt. eigenvalues --    0.21686   0.22116   0.22711   0.23772   0.25319
 Alpha virt. eigenvalues --    0.25517   0.25587   0.26167   0.27583   0.27623
 Alpha virt. eigenvalues --    0.27816   0.28598   0.29704   0.30461   0.31180
 Alpha virt. eigenvalues --    0.32815   0.33002   0.33850   0.34694   0.36245
 Alpha virt. eigenvalues --    0.37413   0.37573   0.39214   0.39283   0.41436
 Alpha virt. eigenvalues --    0.42181   0.43995   0.44150   0.45846   0.46595
 Alpha virt. eigenvalues --    0.46887   0.49280   0.51157   0.51667   0.51929
 Alpha virt. eigenvalues --    0.53798   0.53992   0.56142   0.56157   0.56254
 Alpha virt. eigenvalues --    0.56861   0.57029   0.58002   0.58316   0.58604
 Alpha virt. eigenvalues --    0.58645   0.59473   0.60279   0.61461   0.61497
 Alpha virt. eigenvalues --    0.61586   0.62908   0.63080   0.63215   0.63475
 Alpha virt. eigenvalues --    0.63535   0.63603   0.64064   0.64280   0.65053
 Alpha virt. eigenvalues --    0.65224   0.65839   0.65875   0.66960   0.67304
 Alpha virt. eigenvalues --    0.67924   0.68424   0.68881   0.70948   0.71876
 Alpha virt. eigenvalues --    0.72030   0.73350   0.75008   0.75422   0.76075
 Alpha virt. eigenvalues --    0.76876   0.77834   0.79219   0.79639   0.81025
 Alpha virt. eigenvalues --    0.81646   0.82266   0.82695   0.83616   0.84284
 Alpha virt. eigenvalues --    0.84477   0.84909   0.86146   0.86513   0.86629
 Alpha virt. eigenvalues --    0.87438   0.87662   0.89390   0.89519   0.90466
 Alpha virt. eigenvalues --    0.90912   0.91178   0.91648   0.92835   0.93092
 Alpha virt. eigenvalues --    0.93410   0.94492   0.95019   0.95031   0.95768
 Alpha virt. eigenvalues --    0.97085   0.97536   0.97611   0.98333   0.98385
 Alpha virt. eigenvalues --    1.00066   1.00139   1.01229   1.02115   1.02526
 Alpha virt. eigenvalues --    1.02559   1.03816   1.06062   1.07138   1.07757
 Alpha virt. eigenvalues --    1.08247   1.09376   1.09561   1.10420   1.13509
 Alpha virt. eigenvalues --    1.14793   1.15362   1.16266   1.18140   1.18423
 Alpha virt. eigenvalues --    1.19150   1.19470   1.23194   1.23692   1.24177
 Alpha virt. eigenvalues --    1.24478   1.25733   1.26415   1.26448   1.28847
 Alpha virt. eigenvalues --    1.28944   1.29211   1.31147   1.33379   1.33719
 Alpha virt. eigenvalues --    1.36317   1.36400   1.36434   1.38462   1.39252
 Alpha virt. eigenvalues --    1.41112   1.42159   1.42448   1.42573   1.45144
 Alpha virt. eigenvalues --    1.45296   1.45558   1.45661   1.47338   1.48195
 Alpha virt. eigenvalues --    1.49431   1.50064   1.50237   1.50267   1.50349
 Alpha virt. eigenvalues --    1.50367   1.52184   1.52470   1.56272   1.56540
 Alpha virt. eigenvalues --    1.57656   1.61744   1.63837   1.64592   1.65437
 Alpha virt. eigenvalues --    1.70118   1.72243   1.72713   1.76497   1.77050
 Alpha virt. eigenvalues --    1.78080   1.79518   1.79574   1.82075   1.82707
 Alpha virt. eigenvalues --    1.84464   1.86319   1.86718   1.87256   1.87814
 Alpha virt. eigenvalues --    1.87912   1.89417   1.90948   1.91348   1.92971
 Alpha virt. eigenvalues --    1.94844   1.95105   1.96399   1.96746   1.97663
 Alpha virt. eigenvalues --    1.97810   1.98289   1.98482   1.98907   1.99460
 Alpha virt. eigenvalues --    2.00364   2.01100   2.02454   2.03105   2.05596
 Alpha virt. eigenvalues --    2.06203   2.06805   2.09103   2.09712   2.12048
 Alpha virt. eigenvalues --    2.12640   2.14267   2.15048   2.15190   2.15986
 Alpha virt. eigenvalues --    2.16440   2.16586   2.18970   2.19550   2.20436
 Alpha virt. eigenvalues --    2.21184   2.21215   2.21691   2.23517   2.24078
 Alpha virt. eigenvalues --    2.24379   2.26323   2.27243   2.27336   2.27409
 Alpha virt. eigenvalues --    2.27795   2.27965   2.28337   2.28654   2.32558
 Alpha virt. eigenvalues --    2.33963   2.38148   2.38700   2.40323   2.40339
 Alpha virt. eigenvalues --    2.42515   2.43758   2.44311   2.44643   2.46569
 Alpha virt. eigenvalues --    2.51026   2.51225   2.57065   2.58346   2.58672
 Alpha virt. eigenvalues --    2.58920   2.59774   2.60015   2.61979   2.63708
 Alpha virt. eigenvalues --    2.65054   2.66609   2.66967   2.67882   2.69083
 Alpha virt. eigenvalues --    2.69086   2.70429   2.72125   2.74551   2.74554
 Alpha virt. eigenvalues --    2.74640   2.76163   2.77725   2.78730   2.79863
 Alpha virt. eigenvalues --    2.82227   2.84469   2.87446   2.88278   2.91814
 Alpha virt. eigenvalues --    2.93123   2.96262   2.98206   2.98964   2.99906
 Alpha virt. eigenvalues --    3.05628   3.06551   3.14199   3.17771   3.18715
 Alpha virt. eigenvalues --    3.28825   3.38817   3.45283   3.46693   3.51636
 Alpha virt. eigenvalues --    3.51708   3.55259   5.55346   5.56730   5.57116
 Alpha virt. eigenvalues --    5.59567   5.61013   5.61086   5.62519  45.70414
 Alpha virt. eigenvalues --   45.84536  45.90850  63.01044
  Beta  occ. eigenvalues --  -14.45155 -14.45155 -14.45130 -14.45130 -10.27897
  Beta  occ. eigenvalues --  -10.27897 -10.27515 -10.27515 -10.27257 -10.27257
  Beta  occ. eigenvalues --  -10.27233 -10.27232 -10.26650 -10.26650 -10.23600
  Beta  occ. eigenvalues --  -10.23600 -10.23552 -10.23551 -10.23077 -10.23077
  Beta  occ. eigenvalues --  -10.22937 -10.22937 -10.22586 -10.22582 -10.22299
  Beta  occ. eigenvalues --  -10.21728  -3.85545  -2.36787  -2.36214  -2.33889
  Beta  occ. eigenvalues --   -1.05419  -1.05336  -0.96870  -0.96442  -0.88029
  Beta  occ. eigenvalues --   -0.87548  -0.85741  -0.80363  -0.78811  -0.77553
  Beta  occ. eigenvalues --   -0.77540  -0.75394  -0.74625  -0.73237  -0.72607
  Beta  occ. eigenvalues --   -0.66762  -0.65201  -0.64106  -0.64081  -0.62633
  Beta  occ. eigenvalues --   -0.61214  -0.58927  -0.57708  -0.56568  -0.53926
  Beta  occ. eigenvalues --   -0.53045  -0.52284  -0.49190  -0.49122  -0.49073
  Beta  occ. eigenvalues --   -0.48602  -0.48232  -0.47227  -0.46740  -0.45820
  Beta  occ. eigenvalues --   -0.45677  -0.45308  -0.44826  -0.44446  -0.43773
  Beta  occ. eigenvalues --   -0.42809  -0.41845  -0.41303  -0.38657  -0.38593
  Beta  occ. eigenvalues --   -0.38562  -0.37295  -0.37267  -0.36516  -0.36462
  Beta  occ. eigenvalues --   -0.35692  -0.35152  -0.34021  -0.33307  -0.31646
  Beta  occ. eigenvalues --   -0.29795  -0.27325  -0.26528  -0.25924  -0.24796
  Beta  occ. eigenvalues --   -0.23785  -0.23151  -0.21959  -0.20741  -0.19819
  Beta  occ. eigenvalues --   -0.19596
  Beta virt. eigenvalues --   -0.04430  -0.03923  -0.00761  -0.00286  -0.00118
  Beta virt. eigenvalues --    0.01364   0.01736   0.02415   0.03490   0.05361
  Beta virt. eigenvalues --    0.05619   0.06011   0.07892   0.08658   0.09275
  Beta virt. eigenvalues --    0.10211   0.10580   0.12625   0.13096   0.13901
  Beta virt. eigenvalues --    0.14246   0.15253   0.15302   0.15992   0.16040
  Beta virt. eigenvalues --    0.16555   0.16658   0.16938   0.17764   0.18008
  Beta virt. eigenvalues --    0.18443   0.18710   0.19518   0.19884   0.20111
  Beta virt. eigenvalues --    0.21475   0.21799   0.22298   0.22654   0.22682
  Beta virt. eigenvalues --    0.23827   0.25634   0.25636   0.26123   0.27006
  Beta virt. eigenvalues --    0.27609   0.27905   0.29026   0.29087   0.30072
  Beta virt. eigenvalues --    0.30773   0.31293   0.32939   0.32971   0.34198
  Beta virt. eigenvalues --    0.34742   0.36364   0.37675   0.37858   0.39355
  Beta virt. eigenvalues --    0.39371   0.41405   0.42577   0.44327   0.44508
  Beta virt. eigenvalues --    0.45913   0.46996   0.47388   0.49574   0.51240
  Beta virt. eigenvalues --    0.51797   0.51928   0.53896   0.54127   0.56178
  Beta virt. eigenvalues --    0.56191   0.56449   0.56919   0.57089   0.58181
  Beta virt. eigenvalues --    0.58442   0.58651   0.58915   0.59528   0.60338
  Beta virt. eigenvalues --    0.61565   0.61616   0.61716   0.62959   0.62960
  Beta virt. eigenvalues --    0.63386   0.63514   0.63644   0.63716   0.64097
  Beta virt. eigenvalues --    0.64282   0.65046   0.65258   0.65898   0.66043
  Beta virt. eigenvalues --    0.67386   0.67600   0.67954   0.68654   0.68655
  Beta virt. eigenvalues --    0.70958   0.71874   0.72117   0.73654   0.75262
  Beta virt. eigenvalues --    0.75422   0.76202   0.76967   0.78290   0.79356
  Beta virt. eigenvalues --    0.80244   0.81221   0.81861   0.82488   0.82735
  Beta virt. eigenvalues --    0.84036   0.84366   0.84535   0.85169   0.86141
  Beta virt. eigenvalues --    0.86833   0.86963   0.87453   0.87668   0.89516
  Beta virt. eigenvalues --    0.89654   0.90527   0.91157   0.91209   0.91778
  Beta virt. eigenvalues --    0.92853   0.93094   0.93460   0.95047   0.95185
  Beta virt. eigenvalues --    0.96122   0.96313   0.97090   0.97658   0.97910
  Beta virt. eigenvalues --    0.98326   0.98442   1.00146   1.00165   1.01270
  Beta virt. eigenvalues --    1.02159   1.02563   1.02587   1.03891   1.06160
  Beta virt. eigenvalues --    1.07163   1.08325   1.09241   1.09371   1.10771
  Beta virt. eigenvalues --    1.13571   1.14900   1.15411   1.16295   1.16750
  Beta virt. eigenvalues --    1.18161   1.18456   1.19183   1.19584   1.23246
  Beta virt. eigenvalues --    1.23828   1.24390   1.24539   1.26282   1.26551
  Beta virt. eigenvalues --    1.26552   1.29005   1.29128   1.29368   1.31115
  Beta virt. eigenvalues --    1.33746   1.34020   1.36568   1.36583   1.36700
  Beta virt. eigenvalues --    1.38600   1.39564   1.41361   1.42495   1.42654
  Beta virt. eigenvalues --    1.42971   1.45080   1.45397   1.45748   1.45803
  Beta virt. eigenvalues --    1.47519   1.48308   1.49611   1.50073   1.50386
  Beta virt. eigenvalues --    1.50466   1.50523   1.50530   1.52635   1.53692
  Beta virt. eigenvalues --    1.56430   1.56519   1.58491   1.61913   1.63852
  Beta virt. eigenvalues --    1.65369   1.65683   1.70165   1.72642   1.72852
  Beta virt. eigenvalues --    1.76718   1.77017   1.78391   1.79450   1.79714
  Beta virt. eigenvalues --    1.82167   1.82793   1.84524   1.86448   1.86831
  Beta virt. eigenvalues --    1.87260   1.87644   1.87853   1.89609   1.90969
  Beta virt. eigenvalues --    1.91414   1.93001   1.94863   1.95159   1.96411
  Beta virt. eigenvalues --    1.96813   1.97810   1.97865   1.98315   1.98444
  Beta virt. eigenvalues --    1.99034   1.99690   2.00397   2.01145   2.02497
  Beta virt. eigenvalues --    2.03168   2.05688   2.06398   2.07048   2.09262
  Beta virt. eigenvalues --    2.09628   2.12196   2.12613   2.14592   2.15106
  Beta virt. eigenvalues --    2.15214   2.16053   2.16568   2.16603   2.19079
  Beta virt. eigenvalues --    2.19788   2.20548   2.21272   2.21287   2.21813
  Beta virt. eigenvalues --    2.23772   2.24404   2.24531   2.26531   2.27297
  Beta virt. eigenvalues --    2.27459   2.27493   2.27923   2.28197   2.28547
  Beta virt. eigenvalues --    2.28821   2.32670   2.34353   2.38278   2.39122
  Beta virt. eigenvalues --    2.40449   2.40529   2.44115   2.44595   2.44891
  Beta virt. eigenvalues --    2.46610   2.48490   2.51117   2.51290   2.57260
  Beta virt. eigenvalues --    2.58605   2.58714   2.58813   2.59969   2.60309
  Beta virt. eigenvalues --    2.62065   2.63907   2.65270   2.66728   2.67404
  Beta virt. eigenvalues --    2.68926   2.69097   2.69158   2.71629   2.72573
  Beta virt. eigenvalues --    2.74658   2.74753   2.74901   2.77039   2.77972
  Beta virt. eigenvalues --    2.79113   2.79961   2.82518   2.84774   2.87745
  Beta virt. eigenvalues --    2.88441   2.92732   2.93106   2.96529   2.98132
  Beta virt. eigenvalues --    2.99408   2.99967   3.05798   3.06744   3.14240
  Beta virt. eigenvalues --    3.17967   3.18894   3.28590   3.38836   3.45920
  Beta virt. eigenvalues --    3.46696   3.51594   3.51722   3.58400   5.61479
  Beta virt. eigenvalues --    5.63555   5.63756   5.63873   5.65510   5.68189
  Beta virt. eigenvalues --    5.69369  45.81212  45.93110  45.99205  63.07757
          Condensed to atoms (all electrons):
               1          2          3          4          5          6
     1  C    5.197156   0.501737  -0.060677  -0.055592  -0.060677   0.501735
     2  C    0.501737   4.566496   0.526060  -0.015296  -0.039455  -0.017804
     3  C   -0.060677   0.526060   5.044751   0.527520  -0.030570  -0.039455
     4  C   -0.055592  -0.015296   0.527520   4.908657   0.527522  -0.015296
     5  C   -0.060677  -0.039455  -0.030570   0.527522   5.044748   0.526062
     6  C    0.501735  -0.017804  -0.039455  -0.015296   0.526062   4.566494
     7  H    0.006028  -0.038409   0.345385  -0.039068   0.003882   0.000760
     8  H    0.001389   0.002535  -0.035259   0.366549  -0.035259   0.002535
     9  H    0.006029   0.000760   0.003882  -0.039069   0.345383  -0.038410
    10  C    0.005847  -0.000030   0.000003   0.000109  -0.004675  -0.043539
    11  C    0.006398   0.001728  -0.000038   0.000036   0.002463  -0.062178
    12  C   -0.000671   0.000001  -0.000000   0.000001   0.000106   0.007132
    13  C    0.000166   0.000001  -0.000001   0.000053   0.001688  -0.004208
    14  C    0.000002  -0.000000   0.000000  -0.000000   0.000001  -0.000041
    15  C    0.000001  -0.000000   0.000000  -0.000001   0.000068   0.000059
    16  H   -0.000025   0.000000   0.000001   0.000090   0.000092   0.000830
    17  C    0.000000   0.000000   0.000000   0.000000  -0.000000  -0.000001
    18  H   -0.000000   0.000000   0.000000   0.000000  -0.000000   0.000002
    19  H   -0.000000   0.000000  -0.000000   0.000000   0.000001  -0.000003
    20  H    0.000000  -0.000000   0.000000  -0.000000  -0.000000  -0.000000
    21  C    0.005847  -0.043539  -0.004675   0.000109   0.000003  -0.000030
    22  C    0.006398  -0.062178   0.002463   0.000036  -0.000038   0.001728
    23  C   -0.000671   0.007131   0.000106   0.000001  -0.000000   0.000001
    24  C    0.000166  -0.004208   0.001688   0.000053  -0.000001   0.000001
    25  C    0.000002  -0.000041   0.000001  -0.000000   0.000000  -0.000000
    26  C    0.000001   0.000059   0.000068  -0.000001   0.000000  -0.000000
    27  H   -0.000025   0.000830   0.000092   0.000090   0.000001   0.000000
    28  C    0.000000  -0.000001  -0.000000   0.000000   0.000000   0.000000
    29  H   -0.000000   0.000002  -0.000000   0.000000   0.000000   0.000000
    30  H   -0.000000  -0.000003   0.000001   0.000000  -0.000000   0.000000
    31  H    0.000000  -0.000000  -0.000000  -0.000000   0.000000  -0.000000
    32  N   -0.040826   0.268633  -0.070156   0.004568   0.000043   0.006048
    33  N    0.001176   0.005992  -0.000158   0.000001   0.000000  -0.000032
    34  N   -0.040826   0.006048   0.000043   0.004568  -0.070157   0.268634
    35  N    0.001176  -0.000032   0.000000   0.000001  -0.000158   0.005992
    36  C   -0.000005   0.000000   0.000000  -0.000000   0.000002  -0.000046
    37  H   -0.000000  -0.000000   0.000000   0.000000  -0.000000   0.000003
    38  H   -0.000000  -0.000000   0.000000   0.000000  -0.000000   0.000003
    39  H   -0.000020   0.000001   0.000000  -0.000000   0.000000  -0.000009
    40  C   -0.000005  -0.000046   0.000002  -0.000000   0.000000   0.000000
    41  H   -0.000000   0.000003  -0.000000   0.000000   0.000000  -0.000000
    42  H   -0.000000   0.000003  -0.000000   0.000000   0.000000  -0.000000
    43  H   -0.000020  -0.000009   0.000000  -0.000000   0.000000   0.000001
    44  Co   0.252209  -0.058049   0.003960   0.003459   0.003960  -0.058048
               7          8          9         10         11         12
     1  C    0.006028   0.001389   0.006029   0.005847   0.006398  -0.000671
     2  C   -0.038409   0.002535   0.000760  -0.000030   0.001728   0.000001
     3  C    0.345385  -0.035259   0.003882   0.000003  -0.000038  -0.000000
     4  C   -0.039068   0.366549  -0.039069   0.000109   0.000036   0.000001
     5  C    0.003882  -0.035259   0.345383  -0.004675   0.002463   0.000106
     6  C    0.000760   0.002535  -0.038410  -0.043539  -0.062178   0.007132
     7  H    0.555281  -0.004159  -0.000101  -0.000000  -0.000000   0.000000
     8  H   -0.004159   0.541450  -0.004159  -0.000002   0.000001  -0.000000
     9  H   -0.000101  -0.004159   0.555284   0.000441  -0.000153  -0.000036
    10  C   -0.000000  -0.000002   0.000441   4.635703  -0.067589   0.514922
    11  C   -0.000000   0.000001  -0.000153  -0.067589   4.812428  -0.056118
    12  C    0.000000  -0.000000  -0.000036   0.514922  -0.056118   4.647612
    13  C   -0.000000   0.000002  -0.000010   0.540113   0.004652  -0.055310
    14  C   -0.000000   0.000000   0.000000  -0.048317   0.005463   0.533260
    15  C   -0.000000   0.000000   0.000098  -0.006291  -0.000070  -0.037847
    16  H    0.000000  -0.000009   0.006033  -0.034359  -0.000153   0.003739
    17  C    0.000000  -0.000000   0.000002  -0.039313  -0.000077  -0.007757
    18  H    0.000000  -0.000000  -0.000000   0.003927  -0.000203  -0.038080
    19  H    0.000000   0.000000  -0.000008   0.001961   0.000003   0.000928
    20  H   -0.000000  -0.000000   0.000000   0.000901   0.000003   0.002286
    21  C    0.000442  -0.000002  -0.000000  -0.000000  -0.000006   0.000000
    22  C   -0.000153   0.000001  -0.000000  -0.000006  -0.011162  -0.000001
    23  C   -0.000036  -0.000000   0.000000   0.000000  -0.000001  -0.000000
    24  C   -0.000010   0.000002  -0.000000   0.000000   0.000000   0.000000
    25  C    0.000000   0.000000  -0.000000  -0.000000   0.000000   0.000000
    26  C    0.000098   0.000000  -0.000000  -0.000000  -0.000000   0.000000
    27  H    0.006032  -0.000009   0.000000   0.000000   0.000000  -0.000000
    28  C    0.000002  -0.000000   0.000000   0.000000  -0.000000  -0.000000
    29  H   -0.000000  -0.000000   0.000000   0.000000   0.000000  -0.000000
    30  H   -0.000008   0.000000   0.000000   0.000000   0.000000   0.000000
    31  H    0.000000  -0.000000  -0.000000   0.000000   0.000000   0.000000
    32  N   -0.003954  -0.000094   0.000007   0.000000   0.000200   0.000000
    33  N    0.000002  -0.000000  -0.000000   0.000000   0.000015   0.000000
    34  N    0.000007  -0.000094  -0.003954   0.256147   0.340433  -0.038839
    35  N   -0.000000  -0.000000   0.000002  -0.045889   0.305601   0.271583
    36  C   -0.000000   0.000000  -0.000000   0.005656  -0.043885  -0.047334
    37  H    0.000000  -0.000000   0.000000  -0.000129   0.000740  -0.001145
    38  H    0.000000  -0.000000   0.000000  -0.000129   0.000736  -0.001141
    39  H    0.000000   0.000000   0.000000   0.000015  -0.000372   0.002647
    40  C   -0.000000   0.000000  -0.000000   0.000000   0.000013   0.000000
    41  H    0.000000  -0.000000   0.000000  -0.000000  -0.000000  -0.000000
    42  H    0.000000  -0.000000   0.000000  -0.000000  -0.000000  -0.000000
    43  H    0.000000   0.000000   0.000000  -0.000000  -0.000001  -0.000000
    44  Co  -0.000665   0.000121  -0.000665   0.007819   0.388898   0.004804
              13         14         15         16         17         18
     1  C    0.000166   0.000002   0.000001  -0.000025   0.000000  -0.000000
     2  C    0.000001  -0.000000  -0.000000   0.000000   0.000000   0.000000
     3  C   -0.000001   0.000000   0.000000   0.000001   0.000000   0.000000
     4  C    0.000053  -0.000000  -0.000001   0.000090   0.000000   0.000000
     5  C    0.001688   0.000001   0.000068   0.000092  -0.000000  -0.000000
     6  C   -0.004208  -0.000041   0.000059   0.000830  -0.000001   0.000002
     7  H   -0.000000  -0.000000  -0.000000   0.000000   0.000000   0.000000
     8  H    0.000002   0.000000   0.000000  -0.000009  -0.000000  -0.000000
     9  H   -0.000010   0.000000   0.000098   0.006033   0.000002  -0.000000
    10  C    0.540113  -0.048317  -0.006291  -0.034359  -0.039313   0.003927
    11  C    0.004652   0.005463  -0.000070  -0.000153  -0.000077  -0.000203
    12  C   -0.055310   0.533260  -0.037847   0.003739  -0.007757  -0.038080
    13  C    5.027389  -0.044771   0.507618   0.355841  -0.035974   0.000293
    14  C   -0.044771   5.037019  -0.038457   0.000461   0.515677   0.362419
    15  C    0.507618  -0.038457   4.899250  -0.035911   0.559363   0.003937
    16  H    0.355841   0.000461  -0.035911   0.518619   0.003736   0.000014
    17  C   -0.035974   0.515677   0.559363   0.003736   4.885691  -0.035786
    18  H    0.000293   0.362419   0.003937   0.000014  -0.035786   0.536796
    19  H   -0.035883   0.004016   0.368915  -0.004052  -0.036085  -0.000150
    20  H    0.004024  -0.036821  -0.036404  -0.000150   0.368163  -0.004246
    21  C    0.000000  -0.000000  -0.000000   0.000000   0.000000   0.000000
    22  C    0.000000   0.000000  -0.000000   0.000000  -0.000000   0.000000
    23  C    0.000000   0.000000   0.000000  -0.000000  -0.000000  -0.000000
    24  C    0.000000  -0.000000  -0.000000   0.000000   0.000000   0.000000
    25  C   -0.000000  -0.000000   0.000000  -0.000000  -0.000000   0.000000
    26  C   -0.000000   0.000000  -0.000000  -0.000000   0.000000   0.000000
    27  H    0.000000  -0.000000  -0.000000   0.000000   0.000000  -0.000000
    28  C    0.000000  -0.000000   0.000000   0.000000   0.000000   0.000000
    29  H    0.000000   0.000000   0.000000  -0.000000   0.000000  -0.000000
    30  H   -0.000000  -0.000000   0.000000  -0.000000   0.000000   0.000000
    31  H   -0.000000   0.000000   0.000000  -0.000000   0.000000   0.000000
    32  N   -0.000000  -0.000000   0.000000   0.000000   0.000000  -0.000000
    33  N   -0.000000  -0.000000   0.000000   0.000000   0.000000  -0.000000
    34  N   -0.077569   0.009036   0.005128  -0.005036  -0.000202  -0.000091
    35  N    0.009348  -0.083822  -0.000146  -0.000099   0.005397  -0.007281
    36  C   -0.000120  -0.002972   0.000009   0.000003  -0.000110   0.004165
    37  H   -0.000008   0.002637  -0.000002  -0.000000  -0.000007   0.000496
    38  H   -0.000008   0.002635  -0.000002  -0.000000  -0.000007   0.000494
    39  H    0.000006   0.000013  -0.000000  -0.000000   0.000001  -0.000030
    40  C    0.000000   0.000000  -0.000000   0.000000   0.000000  -0.000000
    41  H    0.000000   0.000000  -0.000000   0.000000  -0.000000  -0.000000
    42  H    0.000000   0.000000  -0.000000   0.000000  -0.000000  -0.000000
    43  H   -0.000000   0.000000  -0.000000   0.000000  -0.000000   0.000000
    44  Co  -0.000468  -0.000440  -0.000024   0.000056   0.000009   0.000024
              19         20         21         22         23         24
     1  C   -0.000000   0.000000   0.005847   0.006398  -0.000671   0.000166
     2  C    0.000000  -0.000000  -0.043539  -0.062178   0.007131  -0.004208
     3  C   -0.000000   0.000000  -0.004675   0.002463   0.000106   0.001688
     4  C    0.000000  -0.000000   0.000109   0.000036   0.000001   0.000053
     5  C    0.000001  -0.000000   0.000003  -0.000038  -0.000000  -0.000001
     6  C   -0.000003  -0.000000  -0.000030   0.001728   0.000001   0.000001
     7  H    0.000000  -0.000000   0.000442  -0.000153  -0.000036  -0.000010
     8  H    0.000000  -0.000000  -0.000002   0.000001  -0.000000   0.000002
     9  H   -0.000008   0.000000  -0.000000  -0.000000   0.000000  -0.000000
    10  C    0.001961   0.000901  -0.000000  -0.000006   0.000000   0.000000
    11  C    0.000003   0.000003  -0.000006  -0.011162  -0.000001   0.000000
    12  C    0.000928   0.002286   0.000000  -0.000001  -0.000000   0.000000
    13  C   -0.035883   0.004024   0.000000   0.000000   0.000000   0.000000
    14  C    0.004016  -0.036821  -0.000000   0.000000   0.000000  -0.000000
    15  C    0.368915  -0.036404  -0.000000  -0.000000   0.000000  -0.000000
    16  H   -0.004052  -0.000150   0.000000   0.000000  -0.000000   0.000000
    17  C   -0.036085   0.368163   0.000000  -0.000000  -0.000000   0.000000
    18  H   -0.000150  -0.004246   0.000000   0.000000  -0.000000   0.000000
    19  H    0.534318  -0.004601   0.000000   0.000000   0.000000  -0.000000
    20  H   -0.004601   0.537873   0.000000   0.000000   0.000000  -0.000000
    21  C    0.000000   0.000000   4.635721  -0.067591   0.514930   0.540107
    22  C    0.000000   0.000000  -0.067591   4.812433  -0.056118   0.004652
    23  C    0.000000   0.000000   0.514930  -0.056118   4.647610  -0.055308
    24  C   -0.000000  -0.000000   0.540107   0.004652  -0.055308   5.027375
    25  C   -0.000000   0.000000  -0.048317   0.005463   0.533256  -0.044765
    26  C    0.000000   0.000000  -0.006294  -0.000070  -0.037846   0.507620
    27  H   -0.000000  -0.000000  -0.034360  -0.000153   0.003739   0.355846
    28  C    0.000000   0.000000  -0.039312  -0.000077  -0.007760  -0.035977
    29  H    0.000000   0.000000   0.003927  -0.000203  -0.038079   0.000293
    30  H    0.000000   0.000000   0.001962   0.000003   0.000928  -0.035886
    31  H    0.000000   0.000000   0.000901   0.000003   0.002286   0.004024
    32  N    0.000000   0.000000   0.256149   0.340434  -0.038841  -0.077563
    33  N   -0.000000  -0.000000  -0.045892   0.305602   0.271584   0.009347
    34  N   -0.000088   0.000004   0.000000   0.000200   0.000000  -0.000000
    35  N    0.000004  -0.000097   0.000000   0.000015   0.000000  -0.000000
    36  C   -0.000000  -0.000002   0.000000   0.000013   0.000000   0.000000
    37  H   -0.000000  -0.000000  -0.000000  -0.000000  -0.000000   0.000000
    38  H   -0.000000  -0.000000  -0.000000  -0.000000  -0.000000   0.000000
    39  H   -0.000000  -0.000000  -0.000000  -0.000001  -0.000000  -0.000000
    40  C    0.000000  -0.000000   0.005656  -0.043885  -0.047333  -0.000120
    41  H   -0.000000   0.000000  -0.000129   0.000735  -0.001141  -0.000008
    42  H   -0.000000   0.000000  -0.000129   0.000741  -0.001145  -0.000008
    43  H    0.000000   0.000000   0.000015  -0.000372   0.002647   0.000006
    44  Co   0.000013  -0.000003   0.007820   0.388899   0.004804  -0.000468
              25         26         27         28         29         30
     1  C    0.000002   0.000001  -0.000025   0.000000  -0.000000  -0.000000
     2  C   -0.000041   0.000059   0.000830  -0.000001   0.000002  -0.000003
     3  C    0.000001   0.000068   0.000092  -0.000000  -0.000000   0.000001
     4  C   -0.000000  -0.000001   0.000090   0.000000   0.000000   0.000000
     5  C    0.000000   0.000000   0.000001   0.000000   0.000000  -0.000000
     6  C   -0.000000  -0.000000   0.000000   0.000000   0.000000   0.000000
     7  H    0.000000   0.000098   0.006032   0.000002  -0.000000  -0.000008
     8  H    0.000000   0.000000  -0.000009  -0.000000  -0.000000   0.000000
     9  H   -0.000000  -0.000000   0.000000   0.000000   0.000000   0.000000
    10  C   -0.000000  -0.000000   0.000000   0.000000   0.000000   0.000000
    11  C    0.000000  -0.000000   0.000000  -0.000000   0.000000   0.000000
    12  C    0.000000   0.000000  -0.000000  -0.000000  -0.000000   0.000000
    13  C   -0.000000  -0.000000   0.000000   0.000000   0.000000  -0.000000
    14  C   -0.000000   0.000000  -0.000000  -0.000000   0.000000  -0.000000
    15  C    0.000000  -0.000000  -0.000000   0.000000   0.000000   0.000000
    16  H   -0.000000  -0.000000   0.000000   0.000000  -0.000000  -0.000000
    17  C   -0.000000   0.000000   0.000000   0.000000   0.000000   0.000000
    18  H    0.000000   0.000000  -0.000000   0.000000  -0.000000   0.000000
    19  H   -0.000000   0.000000  -0.000000   0.000000   0.000000   0.000000
    20  H    0.000000   0.000000  -0.000000   0.000000   0.000000   0.000000
    21  C   -0.048317  -0.006294  -0.034360  -0.039312   0.003927   0.001962
    22  C    0.005463  -0.000070  -0.000153  -0.000077  -0.000203   0.000003
    23  C    0.533256  -0.037846   0.003739  -0.007760  -0.038079   0.000928
    24  C   -0.044765   0.507620   0.355846  -0.035977   0.000293  -0.035886
    25  C    5.037016  -0.038459   0.000461   0.515677   0.362422   0.004016
    26  C   -0.038459   4.899237  -0.035910   0.559376   0.003937   0.368913
    27  H    0.000461  -0.035910   0.518613   0.003736   0.000014  -0.004052
    28  C    0.515677   0.559376   0.003736   4.885678  -0.035784  -0.036085
    29  H    0.362422   0.003937   0.000014  -0.035784   0.536789  -0.000150
    30  H    0.004016   0.368913  -0.004052  -0.036085  -0.000150   0.534326
    31  H   -0.036822  -0.036404  -0.000150   0.368161  -0.004246  -0.004602
    32  N    0.009035   0.005128  -0.005036  -0.000202  -0.000091  -0.000088
    33  N   -0.083818  -0.000146  -0.000099   0.005397  -0.007281   0.000004
    34  N   -0.000000   0.000000   0.000000   0.000000  -0.000000   0.000000
    35  N   -0.000000   0.000000   0.000000   0.000000  -0.000000  -0.000000
    36  C    0.000000  -0.000000   0.000000   0.000000  -0.000000   0.000000
    37  H    0.000000  -0.000000   0.000000  -0.000000  -0.000000  -0.000000
    38  H    0.000000  -0.000000   0.000000  -0.000000  -0.000000  -0.000000
    39  H    0.000000  -0.000000   0.000000  -0.000000   0.000000   0.000000
    40  C   -0.002972   0.000009   0.000003  -0.000110   0.004165  -0.000000
    41  H    0.002635  -0.000002  -0.000000  -0.000007   0.000494  -0.000000
    42  H    0.002637  -0.000002  -0.000000  -0.000007   0.000496  -0.000000
    43  H    0.000013  -0.000000  -0.000000   0.000001  -0.000030  -0.000000
    44  Co  -0.000440  -0.000024   0.000056   0.000009   0.000024   0.000013
              31         32         33         34         35         36
     1  C    0.000000  -0.040826   0.001176  -0.040826   0.001176  -0.000005
     2  C   -0.000000   0.268633   0.005992   0.006048  -0.000032   0.000000
     3  C   -0.000000  -0.070156  -0.000158   0.000043   0.000000   0.000000
     4  C   -0.000000   0.004568   0.000001   0.004568   0.000001  -0.000000
     5  C    0.000000   0.000043   0.000000  -0.070157  -0.000158   0.000002
     6  C   -0.000000   0.006048  -0.000032   0.268634   0.005992  -0.000046
     7  H    0.000000  -0.003954   0.000002   0.000007  -0.000000  -0.000000
     8  H   -0.000000  -0.000094  -0.000000  -0.000094  -0.000000   0.000000
     9  H   -0.000000   0.000007  -0.000000  -0.003954   0.000002  -0.000000
    10  C    0.000000   0.000000   0.000000   0.256147  -0.045889   0.005656
    11  C    0.000000   0.000200   0.000015   0.340433   0.305601  -0.043885
    12  C    0.000000   0.000000   0.000000  -0.038839   0.271583  -0.047334
    13  C   -0.000000  -0.000000  -0.000000  -0.077569   0.009348  -0.000120
    14  C    0.000000  -0.000000  -0.000000   0.009036  -0.083822  -0.002972
    15  C    0.000000   0.000000   0.000000   0.005128  -0.000146   0.000009
    16  H   -0.000000   0.000000   0.000000  -0.005036  -0.000099   0.000003
    17  C    0.000000   0.000000   0.000000  -0.000202   0.005397  -0.000110
    18  H    0.000000  -0.000000  -0.000000  -0.000091  -0.007281   0.004165
    19  H    0.000000   0.000000  -0.000000  -0.000088   0.000004  -0.000000
    20  H    0.000000   0.000000  -0.000000   0.000004  -0.000097  -0.000002
    21  C    0.000901   0.256149  -0.045892   0.000000   0.000000   0.000000
    22  C    0.000003   0.340434   0.305602   0.000200   0.000015   0.000013
    23  C    0.002286  -0.038841   0.271584   0.000000   0.000000   0.000000
    24  C    0.004024  -0.077563   0.009347  -0.000000  -0.000000   0.000000
    25  C   -0.036822   0.009035  -0.083818  -0.000000  -0.000000   0.000000
    26  C   -0.036404   0.005128  -0.000146   0.000000   0.000000  -0.000000
    27  H   -0.000150  -0.005036  -0.000099   0.000000   0.000000   0.000000
    28  C    0.368161  -0.000202   0.005397   0.000000   0.000000   0.000000
    29  H   -0.004246  -0.000091  -0.007281  -0.000000  -0.000000  -0.000000
    30  H   -0.004602  -0.000088   0.000004   0.000000  -0.000000   0.000000
    31  H    0.537879   0.000004  -0.000097   0.000000  -0.000000  -0.000000
    32  N    0.000004   7.207669  -0.055984  -0.000055   0.000000   0.000000
    33  N   -0.000097  -0.055984   7.051173   0.000000  -0.000000  -0.000000
    34  N    0.000000  -0.000055   0.000000   7.207682  -0.055984   0.004503
    35  N   -0.000000   0.000000  -0.000000  -0.055984   7.051178   0.301256
    36  C   -0.000000   0.000000  -0.000000   0.004503   0.301256   5.051780
    37  H    0.000000   0.000000   0.000000  -0.000068  -0.041620   0.377218
    38  H    0.000000   0.000000   0.000000  -0.000068  -0.041625   0.377225
    39  H    0.000000  -0.000000   0.000000   0.000155  -0.032933   0.376623
    40  C   -0.000002   0.004503   0.301256   0.000000  -0.000000   0.000000
    41  H   -0.000000  -0.000068  -0.041626   0.000000   0.000000  -0.000000
    42  H   -0.000000  -0.000068  -0.041620   0.000000   0.000000  -0.000000
    43  H   -0.000000   0.000155  -0.032932  -0.000000   0.000000  -0.000001
    44  Co  -0.000003  -0.076551  -0.054282  -0.076551  -0.054282  -0.004202
              37         38         39         40         41         42
     1  C   -0.000000  -0.000000  -0.000020  -0.000005  -0.000000  -0.000000
     2  C   -0.000000  -0.000000   0.000001  -0.000046   0.000003   0.000003
     3  C    0.000000   0.000000   0.000000   0.000002  -0.000000  -0.000000
     4  C    0.000000   0.000000  -0.000000  -0.000000   0.000000   0.000000
     5  C   -0.000000  -0.000000   0.000000   0.000000   0.000000   0.000000
     6  C    0.000003   0.000003  -0.000009   0.000000  -0.000000  -0.000000
     7  H    0.000000   0.000000   0.000000  -0.000000   0.000000   0.000000
     8  H   -0.000000  -0.000000   0.000000   0.000000  -0.000000  -0.000000
     9  H    0.000000   0.000000   0.000000  -0.000000   0.000000   0.000000
    10  C   -0.000129  -0.000129   0.000015   0.000000  -0.000000  -0.000000
    11  C    0.000740   0.000736  -0.000372   0.000013  -0.000000  -0.000000
    12  C   -0.001145  -0.001141   0.002647   0.000000  -0.000000  -0.000000
    13  C   -0.000008  -0.000008   0.000006   0.000000   0.000000   0.000000
    14  C    0.002637   0.002635   0.000013   0.000000   0.000000   0.000000
    15  C   -0.000002  -0.000002  -0.000000  -0.000000  -0.000000  -0.000000
    16  H   -0.000000  -0.000000  -0.000000   0.000000   0.000000   0.000000
    17  C   -0.000007  -0.000007   0.000001   0.000000  -0.000000  -0.000000
    18  H    0.000496   0.000494  -0.000030  -0.000000  -0.000000  -0.000000
    19  H   -0.000000  -0.000000  -0.000000   0.000000  -0.000000  -0.000000
    20  H   -0.000000  -0.000000  -0.000000  -0.000000   0.000000   0.000000
    21  C   -0.000000  -0.000000  -0.000000   0.005656  -0.000129  -0.000129
    22  C   -0.000000  -0.000000  -0.000001  -0.043885   0.000735   0.000741
    23  C   -0.000000  -0.000000  -0.000000  -0.047333  -0.001141  -0.001145
    24  C    0.000000   0.000000  -0.000000  -0.000120  -0.000008  -0.000008
    25  C    0.000000   0.000000   0.000000  -0.002972   0.002635   0.002637
    26  C   -0.000000  -0.000000  -0.000000   0.000009  -0.000002  -0.000002
    27  H    0.000000   0.000000   0.000000   0.000003  -0.000000  -0.000000
    28  C   -0.000000  -0.000000  -0.000000  -0.000110  -0.000007  -0.000007
    29  H   -0.000000  -0.000000   0.000000   0.004165   0.000494   0.000496
    30  H   -0.000000  -0.000000   0.000000  -0.000000  -0.000000  -0.000000
    31  H    0.000000   0.000000   0.000000  -0.000002  -0.000000  -0.000000
    32  N    0.000000   0.000000  -0.000000   0.004503  -0.000068  -0.000068
    33  N    0.000000   0.000000   0.000000   0.301256  -0.041626  -0.041620
    34  N   -0.000068  -0.000068   0.000155   0.000000   0.000000   0.000000
    35  N   -0.041620  -0.041625  -0.032933  -0.000000   0.000000   0.000000
    36  C    0.377218   0.377225   0.376623   0.000000  -0.000000  -0.000000
    37  H    0.525249  -0.040584  -0.025592  -0.000000  -0.000000   0.000000
    38  H   -0.040584   0.525254  -0.025603  -0.000000   0.000000  -0.000000
    39  H   -0.025592  -0.025603   0.479623  -0.000001   0.000000   0.000000
    40  C   -0.000000  -0.000000  -0.000001   5.051779   0.377225   0.377218
    41  H   -0.000000   0.000000   0.000000   0.377225   0.525255  -0.040584
    42  H    0.000000  -0.000000   0.000000   0.377218  -0.040584   0.525250
    43  H    0.000000   0.000000  -0.000020   0.376623  -0.025604  -0.025591
    44  Co   0.001076   0.001079   0.008143  -0.004202   0.001079   0.001075
              43         44
     1  C   -0.000020   0.252209
     2  C   -0.000009  -0.058049
     3  C    0.000000   0.003960
     4  C   -0.000000   0.003459
     5  C    0.000000   0.003960
     6  C    0.000001  -0.058048
     7  H    0.000000  -0.000665
     8  H    0.000000   0.000121
     9  H    0.000000  -0.000665
    10  C   -0.000000   0.007819
    11  C   -0.000001   0.388898
    12  C   -0.000000   0.004804
    13  C   -0.000000  -0.000468
    14  C    0.000000  -0.000440
    15  C   -0.000000  -0.000024
    16  H    0.000000   0.000056
    17  C   -0.000000   0.000009
    18  H    0.000000   0.000024
    19  H    0.000000   0.000013
    20  H    0.000000  -0.000003
    21  C    0.000015   0.007820
    22  C   -0.000372   0.388899
    23  C    0.002647   0.004804
    24  C    0.000006  -0.000468
    25  C    0.000013  -0.000440
    26  C   -0.000000  -0.000024
    27  H   -0.000000   0.000056
    28  C    0.000001   0.000009
    29  H   -0.000030   0.000024
    30  H   -0.000000   0.000013
    31  H   -0.000000  -0.000003
    32  N    0.000155  -0.076551
    33  N   -0.032932  -0.054282
    34  N   -0.000000  -0.076551
    35  N    0.000000  -0.054282
    36  C   -0.000001  -0.004202
    37  H    0.000000   0.001076
    38  H    0.000000   0.001079
    39  H   -0.000020   0.008143
    40  C    0.376623  -0.004202
    41  H   -0.025604   0.001079
    42  H   -0.025591   0.001075
    43  H    0.479621   0.008143
    44  Co   0.008143  16.347352
          Atomic-Atomic Spin Densities.
               1          2          3          4          5          6
     1  C   -0.398314  -0.006832   0.005910   0.008635   0.005910  -0.006833
     2  C   -0.006832   0.087493   0.002941  -0.002491   0.001436   0.000634
     3  C    0.005910   0.002941  -0.076205  -0.005087  -0.000002   0.001436
     4  C    0.008635  -0.002491  -0.005087   0.086290  -0.005086  -0.002491
     5  C    0.005910   0.001436  -0.000002  -0.005086  -0.076203   0.002941
     6  C   -0.006833   0.000634   0.001436  -0.002491   0.002941   0.087496
     7  H   -0.001036   0.000518   0.004789   0.001995  -0.000043  -0.000103
     8  H   -0.000155   0.000009  -0.000044   0.000425  -0.000044   0.000009
     9  H   -0.001036  -0.000103  -0.000043   0.001995   0.004789   0.000518
    10  C   -0.000311  -0.000018   0.000001   0.000018   0.000420   0.000255
    11  C    0.006858  -0.000786   0.000006   0.000024  -0.000161  -0.006212
    12  C    0.000078   0.000000   0.000000  -0.000000  -0.000008   0.000013
    13  C    0.000015   0.000000  -0.000000   0.000002  -0.000285  -0.000389
    14  C    0.000000   0.000000  -0.000000  -0.000000  -0.000001  -0.000019
    15  C   -0.000000   0.000000   0.000000  -0.000000   0.000002   0.000006
    16  H   -0.000002  -0.000000  -0.000000   0.000003   0.000091   0.000065
    17  C   -0.000000  -0.000000   0.000000  -0.000000   0.000000   0.000002
    18  H    0.000000  -0.000000   0.000000   0.000000   0.000000   0.000000
    19  H    0.000000   0.000000  -0.000000  -0.000000   0.000000   0.000000
    20  H   -0.000000   0.000000  -0.000000  -0.000000  -0.000000  -0.000000
    21  C   -0.000311   0.000255   0.000420   0.000018   0.000001  -0.000018
    22  C    0.006858  -0.006212  -0.000161   0.000024   0.000006  -0.000786
    23  C    0.000078   0.000013  -0.000008  -0.000000   0.000000   0.000000
    24  C    0.000015  -0.000389  -0.000285   0.000002  -0.000000   0.000000
    25  C    0.000000  -0.000019  -0.000001  -0.000000  -0.000000   0.000000
    26  C   -0.000000   0.000006   0.000002  -0.000000   0.000000   0.000000
    27  H   -0.000002   0.000065   0.000091   0.000003  -0.000000  -0.000000
    28  C   -0.000000   0.000002   0.000000  -0.000000   0.000000  -0.000000
    29  H    0.000000   0.000000   0.000000   0.000000   0.000000  -0.000000
    30  H    0.000000   0.000000   0.000000  -0.000000  -0.000000   0.000000
    31  H   -0.000000  -0.000000  -0.000000  -0.000000  -0.000000   0.000000
    32  N    0.002635   0.012328   0.004924   0.000119   0.000048  -0.000158
    33  N   -0.000661   0.000341  -0.000016  -0.000000  -0.000000   0.000003
    34  N    0.002635  -0.000158   0.000048   0.000119   0.004923   0.012328
    35  N   -0.000661   0.000003  -0.000000  -0.000000  -0.000016   0.000341
    36  C   -0.000020   0.000000  -0.000000  -0.000000  -0.000000  -0.000004
    37  H    0.000000  -0.000000   0.000000   0.000000   0.000000  -0.000001
    38  H    0.000000  -0.000000   0.000000   0.000000   0.000000  -0.000001
    39  H    0.000015  -0.000000   0.000000   0.000000   0.000000   0.000000
    40  C   -0.000020  -0.000004  -0.000000  -0.000000  -0.000000   0.000000
    41  H    0.000000  -0.000001   0.000000   0.000000   0.000000  -0.000000
    42  H    0.000000  -0.000001   0.000000   0.000000   0.000000  -0.000000
    43  H    0.000015   0.000000   0.000000   0.000000   0.000000  -0.000000
    44  Co   0.017560  -0.010222  -0.001860   0.000940  -0.001860  -0.010223
               7          8          9         10         11         12
     1  C   -0.001036  -0.000155  -0.001036  -0.000311   0.006858   0.000078
     2  C    0.000518   0.000009  -0.000103  -0.000018  -0.000786   0.000000
     3  C    0.004789  -0.000044  -0.000043   0.000001   0.000006   0.000000
     4  C    0.001995   0.000425   0.001995   0.000018   0.000024  -0.000000
     5  C   -0.000043  -0.000044   0.004789   0.000420  -0.000161  -0.000008
     6  C   -0.000103   0.000009   0.000518   0.000255  -0.006212   0.000013
     7  H   -0.009698  -0.000163  -0.000026  -0.000000   0.000000  -0.000000
     8  H   -0.000163  -0.004131  -0.000163  -0.000000   0.000000   0.000000
     9  H   -0.000026  -0.000163  -0.009698  -0.000134   0.000016   0.000001
    10  C   -0.000000  -0.000000  -0.000134  -0.004560   0.001679  -0.002078
    11  C    0.000000   0.000000   0.000016   0.001679   0.204189  -0.002252
    12  C   -0.000000   0.000000   0.000001  -0.002078  -0.002252  -0.028733
    13  C    0.000000   0.000000   0.000182   0.004436   0.000264   0.000611
    14  C    0.000000   0.000000   0.000001   0.000919   0.000554  -0.000343
    15  C    0.000000   0.000000   0.000006  -0.000763  -0.000027   0.000226
    16  H   -0.000000  -0.000000  -0.000187  -0.000187   0.000000  -0.000006
    17  C   -0.000000  -0.000000  -0.000000   0.000133  -0.000013  -0.000219
    18  H   -0.000000  -0.000000  -0.000000  -0.000011  -0.000003  -0.000084
    19  H   -0.000000  -0.000000  -0.000000   0.000001  -0.000000  -0.000008
    20  H    0.000000   0.000000   0.000000  -0.000004   0.000000   0.000014
    21  C   -0.000134  -0.000000  -0.000000  -0.000000   0.000001  -0.000000
    22  C    0.000016   0.000000   0.000000   0.000001   0.001445   0.000000
    23  C    0.000001   0.000000  -0.000000  -0.000000   0.000000   0.000000
    24  C    0.000182   0.000000   0.000000   0.000000   0.000000   0.000000
    25  C    0.000001   0.000000   0.000000   0.000000   0.000000   0.000000
    26  C    0.000006   0.000000   0.000000  -0.000000  -0.000000   0.000000
    27  H   -0.000187  -0.000000  -0.000000  -0.000000  -0.000000  -0.000000
    28  C   -0.000000  -0.000000  -0.000000  -0.000000  -0.000000   0.000000
    29  H   -0.000000  -0.000000  -0.000000   0.000000   0.000000  -0.000000
    30  H   -0.000000  -0.000000  -0.000000  -0.000000  -0.000000   0.000000
    31  H    0.000000   0.000000   0.000000   0.000000  -0.000000  -0.000000
    32  N   -0.000735  -0.000002  -0.000002  -0.000000  -0.000051  -0.000000
    33  N    0.000003   0.000000   0.000000   0.000000  -0.000002   0.000000
    34  N   -0.000002  -0.000002  -0.000735  -0.001273  -0.032553   0.001547
    35  N    0.000000   0.000000   0.000003  -0.000715  -0.040974   0.008763
    36  C    0.000000   0.000000   0.000000  -0.000029   0.001143   0.000375
    37  H   -0.000000  -0.000000  -0.000000   0.000003   0.000421  -0.000162
    38  H   -0.000000  -0.000000  -0.000000   0.000003   0.000422  -0.000162
    39  H   -0.000000  -0.000000  -0.000000   0.000001  -0.000791  -0.000066
    40  C    0.000000   0.000000   0.000000   0.000000   0.000000  -0.000000
    41  H   -0.000000  -0.000000  -0.000000   0.000000   0.000000  -0.000000
    42  H   -0.000000  -0.000000  -0.000000   0.000000   0.000000  -0.000000
    43  H   -0.000000  -0.000000  -0.000000  -0.000000  -0.000000   0.000000
    44  Co   0.000400   0.000037   0.000400   0.001419   0.059309   0.000064
              13         14         15         16         17         18
     1  C    0.000015   0.000000  -0.000000  -0.000002  -0.000000   0.000000
     2  C    0.000000   0.000000   0.000000  -0.000000  -0.000000  -0.000000
     3  C   -0.000000  -0.000000   0.000000  -0.000000   0.000000   0.000000
     4  C    0.000002  -0.000000  -0.000000   0.000003  -0.000000   0.000000
     5  C   -0.000285  -0.000001   0.000002   0.000091   0.000000   0.000000
     6  C   -0.000389  -0.000019   0.000006   0.000065   0.000002   0.000000
     7  H    0.000000   0.000000   0.000000  -0.000000  -0.000000  -0.000000
     8  H    0.000000   0.000000   0.000000  -0.000000  -0.000000  -0.000000
     9  H    0.000182   0.000001   0.000006  -0.000187  -0.000000  -0.000000
    10  C    0.004436   0.000919  -0.000763  -0.000187   0.000133  -0.000011
    11  C    0.000264   0.000554  -0.000027   0.000000  -0.000013  -0.000003
    12  C    0.000611  -0.000343   0.000226  -0.000006  -0.000219  -0.000084
    13  C    0.019125   0.000977  -0.009481   0.000258  -0.001130  -0.000005
    14  C    0.000977   0.052072  -0.002156  -0.000001  -0.006411   0.000087
    15  C   -0.009481  -0.002156   0.030960   0.000006   0.005806  -0.000003
[...]
 
              Baa    -0.0040    -2.132    -0.761    -0.711 -0.0225  0.3420  0.9394
    41 H(1)   Bbb    -0.0026    -1.363    -0.486    -0.455 -0.6437  0.7140 -0.2754
              Bcc     0.0066     3.495     1.247     1.166  0.7649  0.6109 -0.2041
 
              Baa    -0.0040    -2.131    -0.760    -0.711  0.0227 -0.3421  0.9394
    42 H(1)   Bbb    -0.0026    -1.363    -0.486    -0.455 -0.6437  0.7140  0.2755
              Bcc     0.0065     3.494     1.247     1.165  0.7649  0.6109  0.2040
 
              Baa    -0.0079    -4.205    -1.501    -1.403  0.0002 -0.0003  1.0000
    43 H(1)   Bbb    -0.0068    -3.621    -1.292    -1.208  0.7430 -0.6693 -0.0004
              Bcc     0.0147     7.827     2.793     2.611  0.6693  0.7430  0.0001
 
              Baa    -0.7354   -92.870   -33.138   -30.978  1.0000  0.0000  0.0000
    44 Co(59) Bbb    -0.1476   -18.634    -6.649    -6.216 -0.0000  1.0000 -0.0001
              Bcc     0.8830   111.504    39.788    37.194 -0.0000  0.0001  1.0000
 

 ---------------------------------------------------------------------------------

   1 Symmetry operations used in ECPInt.
 ECPInt:  NShTT=   11781 NPrTT=   71406 LenC2=    9502 LenP2D=   31966.
 LDataN:  DoStor=T MaxTD1= 7 Len=  274
 Calling FoFJK, ICntrl=      2127 FMM=F ISym2X=0 I1Cent= 0 IOpClX= 1 NMat=1 NMatS=1 NMatT=0.
 -------------------------------------------------------------------
 Center     Atomic                   Forces (Hartrees/Bohr)
 Number     Number              X              Y              Z
 -------------------------------------------------------------------
      1        6           0.000006196   -0.071820465   -0.000001975
      2        6           0.053030065    0.031211202    0.000001832
      3        6          -0.005960906    0.002694688    0.000000229
      4        6          -0.000009277    0.002302685    0.000000356
      5        6           0.005977211    0.002700017    0.000000153
      6        6          -0.053040506    0.031200840    0.000001152
      7        1           0.000075367    0.003262765   -0.000000257
      8        1           0.000000584   -0.001026050   -0.000000909
      9        1          -0.000080908    0.003259759   -0.000000468
     10        6          -0.008371713   -0.005395279    0.000001856
     11        6           0.000861972    0.003519923   -0.000010199
     12        6           0.009315689    0.004506270    0.000000234
     13        6           0.009135503    0.003415923   -0.000000878
     14        6           0.001004524    0.003366848   -0.000000234
     15        6          -0.009954564    0.004918783    0.000000366
     16        1          -0.000114185    0.000180910   -0.000000387
     17        6           0.000054087   -0.008207145   -0.000000134
     18        1           0.000139481    0.000113345    0.000000034
     19        1           0.000209213    0.000246598   -0.000000235
     20        1          -0.000357165   -0.000152794    0.000000209
     21        6           0.008358936   -0.005334507    0.000001275
     22        6          -0.000860579    0.003518470   -0.000012276
     23        6          -0.009355666    0.004473302    0.000000137
     24        6          -0.009136735    0.003360389   -0.000000511
     25        6          -0.000980672    0.003401261   -0.000000675
     26        6           0.009973502    0.004972692   -0.000000159
     27        1           0.000119416    0.000197951   -0.000000206
     28        6          -0.000072998   -0.008258923   -0.000000084
     29        1          -0.000144518    0.000101742   -0.000000343
     30        1          -0.000205396    0.000237489   -0.000000194
     31        1           0.000365618   -0.000148679    0.000000212
     32        7          -0.016110244   -0.045834815    0.000003570
     33        7           0.020286824    0.017255015    0.000007434
     34        7           0.016117262   -0.045823873    0.000001667
     35        7          -0.020273228    0.017256206    0.000005429
     36        6          -0.000276587   -0.008337745   -0.000000625
     37        1           0.000545368    0.001797313    0.000596214
     38        1           0.000544293    0.001797751   -0.000597019
     39        1           0.000719012    0.001306790    0.000001074
     40        6           0.000272109   -0.008335492   -0.000000638
     41        1          -0.000543815    0.001797684   -0.000597275
     42        1          -0.000545203    0.001797251    0.000596298
     43        1          -0.000717473    0.001307034    0.000001227
     44       27           0.000000104    0.047196871    0.000004725
 -------------------------------------------------------------------
 Cartesian Forces:  Max     0.071820465 RMS     0.013028630

 GradGradGradGradGradGradGradGradGradGradGradGradGradGradGradGradGradGrad
 Berny optimization.
 Search for a local minimum.
 Step number   1 out of a maximum of    2
 All quantities printed in internal units (Hartrees-Bohrs-Radians)
 Second derivative matrix not updated -- first step.
 ITU=  0
     Eigenvalues ---    0.00054   0.00055   0.00197   0.00241   0.00243
     Eigenvalues ---    0.00380   0.00437   0.00608   0.00654   0.00666
     Eigenvalues ---    0.00666   0.00812   0.00841   0.01317   0.01554
     Eigenvalues ---    0.01794   0.02015   0.02038   0.02535   0.02539
     Eigenvalues ---    0.03040   0.03087   0.04097   0.04197   0.04394
     Eigenvalues ---    0.04481   0.04663   0.05366   0.05519   0.06075
     Eigenvalues ---    0.06140   0.06893   0.06927   0.07019   0.07056
     Eigenvalues ---    0.07058   0.07250   0.07681   0.07750   0.09572
     Eigenvalues ---    0.09808   0.10071   0.10328   0.11448   0.11885
     Eigenvalues ---    0.11941   0.12071   0.12193   0.12798   0.13331
     Eigenvalues ---    0.13333   0.13406   0.13619   0.14688   0.15330
     Eigenvalues ---    0.15395   0.15856   0.19286   0.19733   0.19992
     Eigenvalues ---    0.20945   0.21864   0.23972   0.24366   0.28490
     Eigenvalues ---    0.29425   0.29481   0.30148   0.30634   0.31521
     Eigenvalues ---    0.31698   0.34631   0.35192   0.36326   0.37029
     Eigenvalues ---    0.37464   0.41054   0.41536   0.44258   0.46720
     Eigenvalues ---    0.48089   0.48286   0.49240   0.50818   0.51245
     Eigenvalues ---    0.53069   0.53434   0.53796   0.59834   0.62417
     Eigenvalues ---    0.68464   0.71231   0.72547   0.73704   0.86414
     Eigenvalues ---    0.90151   0.90695   0.91069   0.92560   0.94156
     Eigenvalues ---    0.95014   0.96658   0.99676   1.03856   1.12044
     Eigenvalues ---    1.15531   1.15642   1.18160   1.20461   1.23835
     Eigenvalues ---    1.30543   1.37689   1.37701   1.45361   1.46725
     Eigenvalues ---    1.49339   1.50529   1.53033   1.60245   1.63780
     Eigenvalues ---    1.65280   1.66394   1.77256   1.78438   1.83646
     Eigenvalues ---    1.87332
 Quadratic step=6.076D-01 exceeds max=3.000D-01 adjusted using Lamda=-2.481D-02.
 Angle between NR and scaled steps=  30.86 degrees.
 Angle between quadratic step and forces=  50.59 degrees.
 Linear search not attempted -- first point.
 B after Tr=    -0.000000   -0.000656   -0.000001
         Rot=    1.000000   -0.000000   -0.000000    0.000000 Ang=  -0.00 deg.
 Variable       Old X    -DE/DX   Delta X   Delta X   Delta X     New X
                                 (Linear)    (Quad)   (Total)
    X1       -0.00000   0.00001   0.00000   0.00000   0.00000   0.00000
    Y1        1.52143  -0.07182   0.00000  -0.14399  -0.14464   1.37679
    Z1        0.00017  -0.00000   0.00000  -0.00002  -0.00002   0.00016
    X2       -2.43050   0.05303   0.00000   0.07831   0.07831  -2.35219
    Y2        2.56688   0.03121   0.00000  -0.02510  -0.02576   2.54112
    Z2        0.00007   0.00000   0.00000   0.00001   0.00001   0.00007
    X3       -2.35578  -0.00596   0.00000   0.02174   0.02174  -2.33404
    Y3        5.20747   0.00269   0.00000  -0.00957  -0.01023   5.19724
    Z3       -0.00002   0.00000   0.00000   0.00001   0.00001  -0.00001
    X4        0.00001  -0.00001   0.00000  -0.00001  -0.00001   0.00000
    Y4        6.42809   0.00230   0.00000   0.01274   0.01208   6.44018
    Z4       -0.00000   0.00000   0.00000   0.00000   0.00001   0.00000
    X5        2.35578   0.00598   0.00000  -0.02173  -0.02173   2.33404
    Y5        5.20747   0.00270   0.00000  -0.00957  -0.01022   5.19724
    Z5        0.00006   0.00000   0.00000   0.00001   0.00001   0.00007
    X6        2.43052  -0.05304   0.00000  -0.07832  -0.07832   2.35220
    Y6        2.56689   0.03120   0.00000  -0.02511  -0.02576   2.54113
    Z6        0.00013   0.00000   0.00000   0.00000   0.00000   0.00013
    X7       -4.07402   0.00008   0.00000   0.01735   0.01735  -4.05666
    Y7        6.32276   0.00326   0.00000  -0.00522  -0.00587   6.31689
    Z7       -0.00009  -0.00000   0.00000   0.00001   0.00001  -0.00008
    X8        0.00000   0.00000   0.00000  -0.00000  -0.00001  -0.00000
    Y8        8.48409  -0.00103   0.00000   0.00918   0.00853   8.49262
    Z8       -0.00002  -0.00000   0.00000  -0.00002  -0.00001  -0.00003
    X9        4.07403  -0.00008   0.00000  -0.01736  -0.01736   4.05667
    Y9        6.32276   0.00326   0.00000  -0.00522  -0.00587   6.31688
    Z9        0.00007  -0.00000   0.00000  -0.00000   0.00000   0.00007
   X10        7.00191  -0.00837   0.00000  -0.03814  -0.03814   6.96377
   Y10        1.10107  -0.00540   0.00000  -0.01128  -0.01193   1.08913
   Z10       -0.00007   0.00000   0.00000   0.00001   0.00001  -0.00006
   X11        3.65110   0.00086   0.00000  -0.04159  -0.04159   3.60951
   Y11       -1.72631   0.00352   0.00000   0.00677   0.00611  -1.72020
   Z11        0.00026  -0.00001   0.00000  -0.00004  -0.00004   0.00022
   X12        7.94519   0.00932   0.00000  -0.02380  -0.02380   7.92139
   Y12       -1.40182   0.00451   0.00000   0.00708   0.00643  -1.39539
   Z12       -0.00019   0.00000   0.00000   0.00001   0.00001  -0.00018
   X13        8.62941   0.00914   0.00000  -0.03010  -0.03010   8.59931
   Y13        3.14267   0.00342   0.00000   0.00020  -0.00045   3.14222
   Z13       -0.00013  -0.00000   0.00000   0.00000   0.00000  -0.00013
   X14       10.52784   0.00100   0.00000  -0.02428  -0.02428  10.50357
   Y14       -1.88140   0.00337   0.00000   0.00194   0.00129  -1.88011
   Z14       -0.00038  -0.00000   0.00000   0.00001   0.00001  -0.00037
   X15       11.24413  -0.00995   0.00000  -0.04100  -0.04100  11.20313
   Y15        2.65450   0.00492   0.00000   0.00071   0.00006   2.65456
   Z15       -0.00033   0.00000   0.00000  -0.00000  -0.00000  -0.00033
   X16        7.93839  -0.00011   0.00000  -0.02378  -0.02378   7.91462
   Y16        5.06923   0.00018   0.00000   0.00236   0.00170   5.07093
   Z16       -0.00000  -0.00000   0.00000  -0.00001  -0.00001  -0.00001
   X17       12.16612   0.00005   0.00000  -0.02831  -0.02831  12.13781
   Y17        0.20126  -0.00821   0.00000  -0.00635  -0.00700   0.19426
   Z17       -0.00047  -0.00000   0.00000   0.00001   0.00000  -0.00046
   X18       11.24922   0.00014   0.00000  -0.01936  -0.01936  11.22986
   Y18       -3.80202   0.00011   0.00000   0.00325   0.00259  -3.79942
   Z18       -0.00044   0.00000   0.00000   0.00001   0.00001  -0.00043
   X19       12.54742   0.00021   0.00000  -0.03510  -0.03510  12.51232
   Y19        4.23775   0.00025   0.00000  -0.00085  -0.00151   4.23624
   Z19       -0.00037  -0.00000   0.00000  -0.00001  -0.00001  -0.00038
   X20       14.19378  -0.00036   0.00000  -0.02697  -0.02697  14.16680
   Y20       -0.12174  -0.00015   0.00000  -0.00366  -0.00431  -0.12605
   Z20       -0.00062   0.00000   0.00000   0.00001   0.00001  -0.00061
   X21       -7.00189   0.00836   0.00000   0.03813   0.03813  -6.96377
   Y21        1.10101  -0.00533   0.00000  -0.01124  -0.01189   1.08912
   Z21       -0.00010   0.00000   0.00000   0.00002   0.00002  -0.00008
   X22       -3.65110  -0.00086   0.00000   0.04160   0.04159  -3.60950
   Y22       -1.72631   0.00352   0.00000   0.00677   0.00611  -1.72020
   Z22        0.00021  -0.00001   0.00000  -0.00004  -0.00004   0.00017
   X23       -7.94515  -0.00936   0.00000   0.02377   0.02377  -7.92138
   Y23       -1.40180   0.00447   0.00000   0.00707   0.00641  -1.39539
   Z23       -0.00015   0.00000   0.00000   0.00001   0.00001  -0.00014
   X24       -8.62941  -0.00914   0.00000   0.03010   0.03010  -8.59931
   Y24        3.14270   0.00336   0.00000   0.00018  -0.00048   3.14222
   Z24       -0.00012  -0.00000   0.00000   0.00000   0.00000  -0.00012
   X25      -10.52785  -0.00098   0.00000   0.02429   0.02429 -10.50356
   Y25       -1.88144   0.00340   0.00000   0.00196   0.00130  -1.88014
   Z25       -0.00020  -0.00000   0.00000   0.00000  -0.00000  -0.00020
   X26      -11.24414   0.00997   0.00000   0.04102   0.04102 -11.20312
   Y26        2.65444   0.00497   0.00000   0.00075   0.00009   2.65453
   Z26       -0.00020  -0.00000   0.00000  -0.00000  -0.00000  -0.00020
   X27       -7.93840   0.00012   0.00000   0.02379   0.02379  -7.91461
   Y27        5.06920   0.00020   0.00000   0.00238   0.00173   5.07093
   Z27       -0.00005  -0.00000   0.00000  -0.00000  -0.00000  -0.00005
   X28      -12.16610  -0.00007   0.00000   0.02830   0.02830 -12.13779
   Y28        0.20128  -0.00826   0.00000  -0.00638  -0.00704   0.19424
   Z28       -0.00024  -0.00000   0.00000  -0.00000  -0.00000  -0.00024
   X29      -11.24920  -0.00014   0.00000   0.01936   0.01936 -11.22984
   Y29       -3.80202   0.00010   0.00000   0.00323   0.00257  -3.79945
   Z29       -0.00018  -0.00000   0.00000  -0.00001  -0.00001  -0.00019
   X30      -12.54742  -0.00021   0.00000   0.03511   0.03511 -12.51230
   Y30        4.23773   0.00024   0.00000  -0.00085  -0.00151   4.23623
   Z30       -0.00021  -0.00000   0.00000  -0.00001  -0.00001  -0.00022
   X31      -14.19377   0.00037   0.00000   0.02698   0.02698 -14.16679
   Y31       -0.12176  -0.00015   0.00000  -0.00366  -0.00432  -0.12608
   Z31       -0.00029   0.00000   0.00000   0.00000  -0.00000  -0.00029
   X32       -4.37647  -0.01611   0.00000   0.03382   0.03382  -4.34265
   Y32        0.88735  -0.04583   0.00000  -0.04913  -0.04979   0.83756
   Z32        0.00007   0.00000   0.00000   0.00001   0.00001   0.00007
   X33       -5.92809   0.02029   0.00000   0.05547   0.05547  -5.87262
   Y33       -3.03435   0.01726   0.00000   0.02696   0.02631  -3.00804
   Z33       -0.00008   0.00001   0.00000   0.00002   0.00002  -0.00006
   X34        4.37648   0.01612   0.00000  -0.03382  -0.03382   4.34265
   Y34        0.88734  -0.04582   0.00000  -0.04913  -0.04979   0.83756
   Z34        0.00017   0.00000   0.00000  -0.00000  -0.00000   0.00016
   X35        5.92809  -0.02027   0.00000  -0.05547  -0.05547   5.87262
   Y35       -3.03434   0.01726   0.00000   0.02696   0.02631  -3.00804
   Z35       -0.00003   0.00001   0.00000   0.00000   0.00000  -0.00003
   X36        6.08519  -0.00028   0.00000  -0.02597  -0.02597   6.05923
   Y36       -5.72847  -0.00834   0.00000   0.01465   0.01399  -5.71448
   Z36        0.00002  -0.00000   0.00000   0.00000  -0.00000   0.00002
   X37        7.06047   0.00055   0.00000  -0.00631  -0.00631   7.05416
   Y37       -6.44097   0.00180   0.00000   0.03841   0.03775  -6.40321
   Z37       -1.68674   0.00060   0.00000   0.00275   0.00275  -1.68399
   X38        7.05950   0.00054   0.00000  -0.00632  -0.00632   7.05318
   Y38       -6.44103   0.00180   0.00000   0.03840   0.03775  -6.40329
   Z38        1.68733  -0.00060   0.00000  -0.00274  -0.00274   1.68459
   X39        4.16564   0.00072   0.00000  -0.01485  -0.01485   4.15079
   Y39       -6.49461   0.00131   0.00000  -0.00137  -0.00203  -6.49664
   Z39       -0.00058   0.00000   0.00000   0.00001   0.00000  -0.00057
   X40       -6.08518   0.00027   0.00000   0.02597   0.02597  -6.05921
   Y40       -5.72848  -0.00834   0.00000   0.01465   0.01399  -5.71449
   Z40        0.00009  -0.00000   0.00000   0.00001   0.00000   0.00009
   X41       -7.05936  -0.00054   0.00000   0.00632   0.00632  -7.05304
   Y41       -6.44099   0.00180   0.00000   0.03840   0.03774  -6.40325
   Z41        1.68749  -0.00060   0.00000  -0.00274  -0.00274   1.68475
   X42       -7.06058  -0.00055   0.00000   0.00631   0.00631  -7.05428
   Y42       -6.44103   0.00180   0.00000   0.03842   0.03776  -6.40327
   Z42       -1.68657   0.00060   0.00000   0.00276   0.00275  -1.68382
   X43       -4.16562  -0.00072   0.00000   0.01485   0.01485  -4.15077
   Y43       -6.49462   0.00131   0.00000  -0.00136  -0.00202  -6.49664
   Z43       -0.00064   0.00000   0.00000   0.00001   0.00000  -0.00064
   X44        0.00000   0.00000   0.00000   0.00000   0.00000   0.00000
   Y44       -2.39762   0.04720   0.00000   0.09446   0.09381  -2.30381
   Z44        0.00025   0.00000   0.00000  -0.00003  -0.00003   0.00022
         Item               Value     Threshold  Converged?
 Maximum Force            0.071820     0.000450     NO 
 RMS     Force            0.013029     0.000300     NO 
 Maximum Displacement     0.144645     0.001800     NO 
 RMS     Displacement     0.026124     0.001200     NO 
 Predicted change in Energy=-1.538200D-02
 GradGradGradGradGradGradGradGradGradGradGradGradGradGradGradGradGradGrad

 Unable to Open any file for archive entry.
 1\1\GINC-X11P1N5\Force\UPBE1PBE\GenECP\C22H17Co1N4(3)\MAYUMIAO\17-Jul-
 2024\0\\# pbe1pbe em=gd3bj genecp g09default scf=(xqc,maxcycle=64) for
 ce guess=read nosymm\\Title Card\\0,3\C,-0.00000047,0.80510651,0.00009
 205\C,-1.28616518,1.35833425,0.00003462\C,-1.24662558,2.7556745,-0.000
 01044\C,0.00000597,3.40160082,-0.00000208\C,1.24662319,2.75567258,0.00
 003147\C,1.28617324,1.35833923,0.00006714\H,-2.15587652,3.34585907,-0.
 0000459\H,0.00000208,4.48958833,-0.00001113\H,2.15588468,3.34585864,0.
 00003553\C,3.70525089,0.58265942,-0.00003968\C,1.93208138,-0.91352452,
 0.0001399\C,4.20441478,-0.74180884,-0.00009872\C,4.56648893,1.6630291,
 -0.00007105\C,5.57109455,-0.9955955,-0.0001998\C,5.95013761,1.40469978
 ,-0.00017691\H,4.20081725,2.68252005,-0.00000218\C,6.43803238,0.106502
 26,-0.00024619\H,5.95283186,-2.01193978,-0.00023167\H,6.63980752,2.242
 52021,-0.00019738\H,7.51102246,-0.06441978,-0.00032788\C,-3.70524297,0
 .58263059,-0.00005112\C,-1.93207784,-0.91352605,0.00010995\C,-4.204394
 29,-0.74180145,-0.00007954\C,-4.56648638,1.66304342,-0.00006489\C,-5.5
 7109781,-0.99561624,-0.00010641\C,-5.95014226,1.40466929,-0.0001064\H,
 -4.20081907,2.68250673,-0.00002742\C,-6.43802058,0.10651223,-0.0001283
 2\H,-5.95282219,-2.01194371,-0.00009542\H,-6.63980776,2.24251275,-0.00
 011046\H,-7.51102117,-0.06443369,-0.00015305\N,-2.31592985,0.46956388,
 0.00003454\N,-3.13700902,-1.60570839,-0.0000399\N,2.31593129,0.4695623
 3,0.00008747\N,3.13700935,-1.60570425,-0.00001789\C,3.22014615,-3.0313
 7527,0.00001289\H,3.73623979,-3.4084131,-0.89258335\H,3.73572887,-3.40
 844745,0.89289617\H,2.20435997,-3.43680174,-0.00030491\C,-3.22013614,-
 3.03138181,0.00004765\H,-3.73565185,-3.40842586,0.89298293\H,-3.736300
 66,-3.40844834,-0.89249547\H,-2.2043522,-3.43680713,-0.00033949\Co,0.0
 0000096,-1.26876569,0.00013241\\Version=ES64L-G16RevC.01\HF=-1212.1116
 188\S2=2.348134\S2-1=0.\S2A=2.008966\RMSD=2.600e-09\RMSF=1.303e-02\Dip
 ole=0.0000754,-1.3256226,-0.000041\Quadrupole=8.6863211,10.8029541,-19
 .4892752,0.0001893,-0.0003479,0.0000008\PG=C01 [X(C22H17Co1N4)]\\@
 The archive entry for this job was punched.


 WHEN YOU REACH FOR THE STARS, YOU MAY NOT QUITE GET ONE,
 BUT YOU WON'T COME UP WITH A HANDFUL OF MUD, EITHER.

                                         -- LEO BURNETT (AD AGENCY HEAD)
 Job cpu time:       0 days  0 hours 55 minutes 54.3 seconds.
 Elapsed time:       0 days  0 hours  1 minutes  1.0 seconds.
 File lengths (MBytes):  RWF=    184 Int=      0 D2E=      0 Chk=     72 Scr=      1
 Normal termination of Gaussian 16 at Wed Jul 17 21:27:26 2024.
