 Entering Gaussian System, Link 0=g16
 Input=JOBS/37_A.gjf
 Output=JOBS/37_A.log
 Initial command:
 /data/app/gaussian/C01-avx2//g16/l1.exe "/tmp/Gau-2101728.inp" -scrdir="/tmp/"
 Entering Link 1 = /data/app/gaussian/C01-avx2//g16/l1.exe PID=   2101729.
  
 Copyright (c) 1988-2019, Gaussian, Inc.  All Rights Reserved.
  
 This is part of the Gaussian(R) 16 program.  It is based on
 the Gaussian(R) 09 system (copyright 2009, Gaussian, Inc.),
 the Gaussian(R) 03 system (copyright 2003, Gaussian, Inc.),
 the Gaussian(R) 98 system (copyright 1998, Gaussian, Inc.),
 the Gaussian(R) 94 system (copyright 1995, Gaussian, Inc.),
 the Gaussian 92(TM) system (copyright 1992, Gaussian, Inc.),
 the Gaussian 90(TM) system (copyright 1990, Gaussian, Inc.),
 the Gaussian 88(TM) system (copyright 1988, Gaussian, Inc.),
 the Gaussian 86(TM) system (copyright 1986, Carnegie Mellon
 University), and the Gaussian 82(TM) system (copyright 1983,
 Carnegie Mellon University). Gaussian is a federally registered
 trademark of Gaussian, Inc.
  
 This software contains proprietary and confidential information,
 including trade secrets, belonging to Gaussian, Inc.
  
 This software is provided under written license and may be
 used, copied, transmitted, or stored only in accord with that
 written license.
  
 The following legend is applicable only to US Government
 contracts under FAR:
  
                    RESTRICTED RIGHTS LEGEND
  
 Use, reproduction and disclosure by the US Government is
 subject to restrictions as set forth in subparagraphs (a)
 and (c) of the Commercial Computer Software - Restricted
 Rights clause in FAR 52.227-19.
  
 Gaussian, Inc.
 340 Quinnipiac St., Bldg. 40, Wallingford CT 06492
  
  
 ---------------------------------------------------------------
 Warning -- This program may not be used in any manner that
 competes with the business of Gaussian, Inc. or will provide
 assistance to any competitor of Gaussian, Inc.  The licensee
 of this program is prohibited from giving any competitor of
 Gaussian, Inc. access to this program.  By using this program,
 the user acknowledges that Gaussian, Inc. is engaged in the
 business of creating and licensing software in the field of
 computational chemistry and represents and warrants to the
 licensee that it is not a competitor of Gaussian, Inc. and that
 it will not use this program in any manner prohibited above.
 ---------------------------------------------------------------
  

 Cite this work as:
 Gaussian 16, Revision C.01,
 M. J. Frisch, G. W. Trucks, H. B. Schlegel, G. E. Scuseria, 
 M. A. Robb, J. R. Cheeseman, G. Scalmani, V. Barone, 
 G. A. Petersson, H. Nakatsuji, X. Li, M. Caricato, A. V. Marenich, 
 J. Bloino, B. G. Janesko, R. Gomperts, B. Mennucci, H. P. Hratchian, 
 J. V. Ortiz, A. F. Izmaylov, J. L. Sonnenberg, D. Williams-Young, 
 F. Ding, F. Lipparini, F. Egidi, J. Goings, B. Peng, A. Petrone, 
 T. Henderson, D. Ranasinghe, V. G. Zakrzewski, J. Gao, N. Rega, 
 G. Zheng, W. Liang, M. Hada, M. Ehara, K. Toyota, R. Fukuda, 
 J. Hasegawa, M. Ishida, T. Nakajima, Y. Honda, O. Kitao, H. Nakai, 
 T. Vreven, K. Throssell, J. A. Montgomery, Jr., J. E. Peralta, 
 F. Ogliaro, M. J. Bearpark, J. J. Heyd, E. N. Brothers, K. N. Kudin, 
 V. N. Staroverov, T. A. Keith, R. Kobayashi, J. Normand, 
 K. Raghavachari, A. P. Rendell, J. C. Burant, S. S. Iyengar, 
 J. Tomasi, M. Cossi, J. M. Millam, M. Klene, C. Adamo, R. Cammi, 
 J. W. Ochterski, R. L. Martin, K. Morokuma, O. Farkas, 
 J. B. Foresman, and D. J. Fox, Gaussian, Inc., Wallingford CT, 2019.
 
 ******************************************
 Gaussian 16:  ES64L-G16RevC.01  3-Jul-2019
                17-Jul-2024 
 ******************************************
 %chk=a.chk
 %nprocshared=56
 Will use up to   56 processors via shared memory.
 %mem=96gb
 ----------------------------------------------------------------------
 # pbe1pbe em=gd3bj genecp g09default scf=(xqc,maxcycle=64) force guess
 =read nosymm
 ----------------------------------------------------------------------
 1/10=7,30=1,38=1,158=3,167=1/1,3;
 2/12=2,15=1,17=6,18=5,40=1/2;
 3/5=7,11=2,16=1,17=8,25=1,27=10,30=1,71=1,74=-13,75=-4,116=-2,124=41,158=3/1,2,3;
 4/5=1,60=-1/1;
 5/5=2,7=64,8=3,13=1,38=6,87=10/2,8;
 6/7=2,8=2,9=2,10=2,28=1,87=10/1;
 7/29=1,30=1,87=10/1,2,3,16;
 1/10=7,30=1,158=3,167=1/3;
 99//99;
 Using 2006 physical constants.
 ----------
 Title Card
 ----------
 Symbolic Z-matrix:
 Charge =  0 Multiplicity = 1
 6                     0.00001   0.80291   0.00008 
 6                    -1.28707   1.3565    0.00004 
 6                    -1.24729   2.75406  -0.00001 
 6                    0.         3.39931  0. 
 6                     1.2473    2.75406   0.00003 
 6                     1.28707   1.3565    0.00007 
 1                    -2.15382   3.34608  -0.00005 
 1                     0.        4.48574  -0.00001 
 1                     2.15383   3.34608   0.00003 
 6                     3.70963   0.58339  -0.00004 
 6                     1.93599  -0.91392   0.00014 
 6                     4.20848  -0.7418   -0.0001 
 6                     4.57147   1.66264  -0.00008 
 6                     5.57648  -0.99469  -0.0002 
 6                     5.95512   1.40484  -0.00018 
 1                     4.20817   2.68313  -0.00001 
 6                     6.44362   0.10728  -0.00025 
 1                     5.96037  -2.00971  -0.00023 
 1                     6.64487   2.2426   -0.0002 
 1                     7.51666  -0.06286  -0.00033 
 6                    -3.70963   0.58342  -0.00005 
 6                    -1.93599  -0.91392   0.00011 
 6                    -4.2085   -0.74182  -0.00008 
 6                    -4.57147   1.66261  -0.00007 
 6                    -5.57646  -0.99468  -0.00011 
 6                    -5.95511   1.40486  -0.00011 
 1                    -4.20817   2.68313  -0.00003 
 6                    -6.44363   0.10724  -0.00013 
 1                    -5.96036  -2.00973  -0.00009 
 1                    -6.64486   2.24258  -0.00011 
 1                    -7.51665  -0.06287  -0.00015 
 7                    -2.31847   0.46939   0.00004 
 7                    -3.14189  -1.60453  -0.00004 
 7                     2.31848   0.46939   0.00009 
 7                     3.14191  -1.60452  -0.00001 
 6                     3.22588  -3.03206   0.00002 
 1                     3.74249  -3.40862  -0.89233 
 1                     3.74196  -3.40866   0.89266 
 1                     2.21066  -3.43714  -0.00032 
 6                    -3.22588  -3.03206   0.00005 
 1                    -3.74188  -3.40864   0.89274 
 1                    -3.74255  -3.40865  -0.89224 
 1                    -2.21065  -3.43714  -0.00035 
 27                    0.       -1.26567   0.00014 
 

 GradGradGradGradGradGradGradGradGradGradGradGradGradGradGradGradGradGrad
 Berny optimization.
 Initialization pass.
 Trust Radius=3.00D-01 FncErr=1.00D-07 GrdErr=1.00D-07 EigMax=2.50D+02 EigMin=1.00D-04
 Number of steps in this run=      2 maximum allowed number of steps=      2.
 GradGradGradGradGradGradGradGradGradGradGradGradGradGradGradGradGradGrad

                          Input orientation:                          
 ---------------------------------------------------------------------
 Center     Atomic      Atomic             Coordinates (Angstroms)
 Number     Number       Type             X           Y           Z
 ---------------------------------------------------------------------
      1          6           0        0.000006    0.802914    0.000082
      2          6           0       -1.287068    1.356499    0.000040
      3          6           0       -1.247285    2.754060   -0.000008
      4          6           0       -0.000002    3.399310   -0.000004
      5          6           0        1.247298    2.754063    0.000032
      6          6           0        1.287065    1.356496    0.000070
      7          1           0       -2.153823    3.346084   -0.000048
      8          1           0        0.000003    4.485740   -0.000014
      9          1           0        2.153826    3.346081    0.000030
     10          6           0        3.709632    0.583392   -0.000042
     11          6           0        1.935993   -0.913916    0.000141
     12          6           0        4.208480   -0.741796   -0.000100
     13          6           0        4.571470    1.662644   -0.000075
     14          6           0        5.576477   -0.994689   -0.000201
     15          6           0        5.955122    1.404842   -0.000180
     16          1           0        4.208169    2.683131   -0.000006
     17          6           0        6.443620    0.107281   -0.000248
     18          1           0        5.960369   -2.009711   -0.000229
     19          1           0        6.644866    2.242598   -0.000198
     20          1           0        7.516655   -0.062859   -0.000327
     21          6           0       -3.709633    0.583416   -0.000053
     22          6           0       -1.935992   -0.913919    0.000112
     23          6           0       -4.208501   -0.741820   -0.000082
     24          6           0       -4.571469    1.662610   -0.000068
     25          6           0       -5.576456   -0.994678   -0.000109
     26          6           0       -5.955108    1.404861   -0.000109
     27          1           0       -4.208166    2.683133   -0.000029
     28          6           0       -6.443627    0.107243   -0.000130
     29          1           0       -5.960364   -2.009727   -0.000094
     30          1           0       -6.644861    2.242581   -0.000111
     31          1           0       -7.516646   -0.062869   -0.000152
     32          7           0       -2.318470    0.469386    0.000043
     33          7           0       -3.141892   -1.604529   -0.000038
     34          7           0        2.318478    0.469394    0.000093
     35          7           0        3.141908   -1.604525   -0.000014
     36          6           0        3.225884   -3.032058    0.000015
     37          1           0        3.742488   -3.408618   -0.892333
     38          1           0        3.741959   -3.408661    0.892656
     39          1           0        2.210663   -3.437138   -0.000316
     40          6           0       -3.225879   -3.032062    0.000050
     41          1           0       -3.741880   -3.408636    0.892744
     42          1           0       -3.742550   -3.408654   -0.892244
     43          1           0       -2.210654   -3.437144   -0.000353
     44         27           0        0.000001   -1.265670    0.000144
 ---------------------------------------------------------------------
                    Distance matrix (angstroms):
                    1          2          3          4          5
     1  C    0.000000
     2  C    1.401077   0.000000
     3  C    2.315752   1.398127   0.000000
     4  C    2.596396   2.414460   1.404302   0.000000
     5  C    2.315754   2.894165   2.494583   1.404315   0.000000
     6  C    1.401062   2.574133   2.894153   2.414464   1.398133
     7  H    3.332671   2.170187   1.082730   2.154479   3.452262
     8  H    3.682826   3.383593   2.134114   1.086430   2.134116
     9  H    3.332663   3.974694   3.452253   2.154486   1.082719
    10  C    3.716115   5.056155   5.411361   4.657336   3.282515
    11  C    2.587576   3.942449   4.856677   4.727790   3.732073
    12  C    4.483011   5.882507   6.479691   5.904243   4.581444
    13  C    4.651603   5.866531   5.920228   4.890232   3.498759
    14  C    5.859044   7.255090   7.785682   7.099602   5.726686
    15  C    5.985459   7.242351   7.327691   6.280239   4.897346
    16  H    4.609106   5.653104   5.455916   4.268679   2.961721
    17  C    6.481055   7.830970   8.133601   7.235864   5.831571
    18  H    6.590659   7.991039   8.639664   8.048822   6.701237
    19  H    6.799034   7.981275   7.908707   6.744795   5.421747
    20  H    7.566345   8.917405   9.205525   8.275672   6.873128
    21  C    3.716127   2.542927   3.282506   4.657319   5.411364
    22  C    2.587586   2.361334   3.732075   4.727790   4.856688
    23  C    4.483050   3.596903   4.581482   5.904271   6.479733
    24  C    4.651609   3.298635   3.498780   4.890239   5.920246
    25  C    5.859033   4.891511   5.726670   7.099575   7.785671
    26  C    5.985459   4.668291   4.897339   6.280216   7.327687
    27  H    4.609114   3.208235   2.961730   4.268671   5.455925
    28  C    6.481078   5.305728   5.831604   7.235884   8.133633
    29  H    6.590672   5.759442   6.701251   8.048825   8.639680
    30  H    6.799037   5.430570   5.421756   6.744789   7.908716
    31  H    7.566349   6.389229   6.873134   8.275664   9.205531
    32  N    2.342343   1.360426   2.523325   3.736274   4.234907
    33  N    3.958195   3.494003   4.752561   5.908458   6.185654
    34  N    2.342338   3.713074   4.234899   3.736276   2.523319
    35  N    3.958196   5.327616   6.185652   5.908466   4.752561
    36  C    5.011317   6.294932   7.313577   7.195056   6.115063
    37  H    5.704347   6.985635   7.979516   7.819870   6.708273
    38  H    5.704057   6.985315   7.979257   7.819692   6.708150
    39  H    4.781740   5.934060   7.091427   7.184989   6.265703
    40  C    5.011325   4.797755   6.115067   7.195056   7.313587
    41  H    5.704009   5.434109   6.708117   7.819641   7.979203
    42  H    5.704408   5.434358   6.708314   7.819919   7.979587
    43  H    4.781747   4.881805   6.265707   7.184990   7.091436
    44  Co   2.068584   2.921013   4.208795   4.664980   4.208800
                    6          7          8          9         10
     6  C    0.000000
     7  H    3.974692   0.000000
     8  H    3.383593   2.436757   0.000000
     9  H    2.170190   4.307650   2.436756   0.000000
    10  C    2.542935   6.481711   5.384205   3.170644   0.000000
    11  C    2.361330   5.905438   5.736231   4.265563   2.321148
    12  C    3.596873   7.562385   6.711067   4.575188   1.415971
    13  C    3.298642   6.932787   5.372912   2.946007   1.381141
    14  C    4.891535   8.865656   7.818706   5.527823   2.444473
    15  C    4.668306   8.338070   6.704876   4.268285   2.391026
    16  H    3.208241   6.396441   4.577997   2.158663   2.158112
    17  C    5.305713   9.187267   7.790450   5.375143   2.775135
    18  H    5.759436   9.722379   8.815715   6.570713   3.433656
    19  H    5.430581   8.867617   7.013266   4.624621   3.371730
    20  H    6.389237  10.253733   8.785773   6.354589   3.861485
    21  C    5.056149   3.170627   5.384192   6.481702   7.419264
    22  C    3.942446   4.265568   5.736235   5.905439   5.840805
    23  C    5.882532   4.575222   6.711102   7.562417   8.028264
    24  C    5.866527   2.946030   5.372934   6.932797   8.351128
    25  C    7.255063   5.527805   7.818688   8.865633   9.419221
    26  C    7.242335   4.268268   6.704861   8.338054   9.699588
    27  H    5.653100   2.158663   4.577999   6.396440   8.191485
    28  C    7.830980   5.375175   7.790482   9.187289  10.164418
    29  H    7.991038   6.570727   8.815728   9.722384  10.011647
    30  H    7.981266   4.624623   7.013272   8.867616  10.486584
    31  H    8.917395   6.354590   8.785775  10.253729  11.244864
    32  N    3.713064   2.881405   4.637500   5.317594   6.029179
    33  N    5.327601   5.048252   6.852947   7.249357   7.192384
    34  N    1.360427   5.317596   4.637495   2.881395   1.395817
    35  N    3.494007   7.249366   6.852948   5.048248   2.260374
    36  C    4.797751   8.343977   8.180684   6.467609   3.647668
    37  H    5.434316   9.010475   8.781988   6.996150   4.090648
    38  H    5.434145   9.010202   8.781837   6.996105   4.090775
    39  H    4.881798   8.066030   8.225510   6.783457   4.290870
    40  C    6.294927   6.467615   8.180688   8.343976   7.821305
    41  H    6.985245   6.996088   8.781793   9.010133   8.500493
    42  H    6.985693   6.996181   8.782040   9.010541   8.501028
    43  H    5.934056   6.783465   8.225514   8.066029   7.156429
    44  Co   2.921008   5.089915   5.751410   5.089913   4.144924
                   11         12         13         14         15
    11  C    0.000000
    12  C    2.278996   0.000000
    13  C    3.685702   2.431685   0.000000
    14  C    3.641380   1.391175   2.841031   0.000000
    15  C    4.640047   2.767456   1.407464   2.429223   0.000000
    16  H    4.254590   3.424928   1.083228   3.924109   2.164686
    17  C    4.621856   2.390980   2.433948   1.402240   1.386469
    18  H    4.170895   2.162573   3.926223   1.085192   3.414557
    19  H    5.668957   3.852608   2.152980   3.409030   1.085164
    20  H    5.645183   3.377125   3.413426   2.152347   2.143020
    21  C    5.840813   8.028244   8.351131   9.419248   9.699599
    22  C    3.871985   6.146883   6.998981   7.512903   8.224739
    23  C    6.146904   8.416981   9.103259   9.788245  10.387848
    24  C    6.998968   9.103224   9.142939  10.490093  10.529746
    25  C    7.512883   9.788203  10.490078  11.152932  11.778581
    26  C    8.224731  10.387813  10.529733  11.778594  11.910230
    27  H    7.119653   9.086808   8.838744  10.453019  10.243361
    28  C    8.441611  10.685891  11.124371  12.070507  12.466464
    29  H    7.972029  10.247587  11.153736  11.581407  12.395083
    30  H    9.143005  11.256177  11.231314  12.642825  12.627802
    31  H    9.490872  11.744766  12.210648  13.126239  13.551483
    32  N    4.473698   6.638376   6.992505   8.029551   8.326307
    33  N    5.124633   7.400830   8.376776   8.739672   9.581857
    34  N    1.435215   2.244792   2.549474   3.571847   3.755029
    35  N    1.389666   1.371815   3.566235   2.509785   4.119522
    36  C    2.479988   2.492146   4.883730   3.110652   5.209109
    37  H    3.206785   2.850468   5.215460   3.160137   5.372251
    38  H    3.206532   2.850758   5.215667   3.160681   5.372621
    39  H    2.538127   3.355017   5.619713   4.158636   6.120926
    40  C    5.579558   7.779140   9.101588   9.035063  10.196906
    41  H    6.265669   8.433116   9.778895   9.667278  10.862722
    42  H    6.266252   8.433679   9.779415   9.667845  10.863258
    43  H    4.854004   6.962053   8.485577   8.161187   9.493404
    44  Co   1.967688   4.240960   5.428936   5.583056   6.526492
                   16         17         18         19         20
    16  H    0.000000
    17  C    3.410608   0.000000
    18  H    5.009288   2.171448   0.000000
    19  H    2.476199   2.144779   4.307048   0.000000
    20  H    4.299598   1.086440   2.492440   2.464781   0.000000
    21  C    8.191483  10.164411  10.011655  10.486588  11.244875
    22  C    7.119655   8.441608   7.972031   9.143015   9.490882
    23  C    9.086838  10.685910  10.247608  11.256213  11.744798
    24  C    8.838751  11.124354  11.153723  11.231321  12.210651
    25  C   10.452998  12.070482  11.581391  12.642811  13.126227
    26  C   10.243348  12.466442  12.395075  12.627793  13.551480
    27  H    8.416335  10.958812  11.199191  10.861969  12.042089
    28  C   10.958830  12.887247  12.583346  13.261538  13.961318
    29  H   11.199196  12.583344  11.920733  13.303161  13.616914
    30  H   10.861968  13.261518  13.303150  13.289728  14.347948
    31  H   12.042084  13.961303  13.616905  14.347947  15.033301
    32  N    6.891856   8.769569   8.642053   9.137049   9.849516
    33  N    8.509256   9.737163   9.111275  10.515752  10.769465
    34  N    2.910595   4.141005   4.405602   4.675670   5.225355
    35  N    4.418247   3.719083   2.847436   5.202986   4.638442
    36  C    5.798989   4.495472   2.919349   6.285811   5.217936
    37  H    6.174343   4.522552   2.769799   6.415290   5.121925
    38  H    6.174474   4.523063   2.770495   6.415667   5.122513
    39  H    6.437991   5.520945   4.012211   7.205661   6.288029
    40  C    9.377020  10.166351   9.242962  11.191678  11.145322
    41  H   10.055343  10.812194   9.843172  11.858259  11.779067
    42  H   10.055838  10.812748   9.843748  11.858786  11.779625
    43  H    8.868994   9.351973   8.294768  10.520442  10.295938
    44  Co   5.770764   6.588265   6.006628   7.514132   7.612283
                   21         22         23         24         25
    21  C    0.000000
    22  C    2.321166   0.000000
    23  C    1.416023   2.279017   0.000000
    24  C    1.381094   3.685681   2.431672   0.000000
    25  C    2.444465   3.641359   1.391128   2.840982   0.000000
    26  C    2.391011   4.640047   2.767467   1.407441   2.429232
    27  H    2.158089   4.254593   3.424953   1.083262   3.924094
    28  C    2.775152   4.621855   2.390961   2.433956   1.402218
    29  H    3.433683   4.170895   2.162547   3.926205   1.085223
    30  H    3.371705   5.668945   3.852596   2.152980   3.409008
    31  H    3.861481   5.645173   3.377098   3.413406   2.152349
    32  N    1.395828   1.435208   2.244825   2.549468   3.571828
    33  N    2.260405   1.389654   1.371831   3.566215   2.509784
    34  N    6.029189   4.473709   6.638411   6.992506   8.029538
    35  N    7.192406   5.124647   7.400864   8.376775   8.739667
    36  C    7.821320   5.579559   7.779157   9.101573   9.035049
    37  H    8.500977   6.266188   8.433632   9.779334   9.667775
    38  H    8.500578   6.265740   8.433199   9.778949   9.667326
    39  H    7.156449   4.854007   6.962069   8.485561   8.161178
    40  C    3.647698   2.479988   2.492139   4.883704   3.110650
    41  H    4.090796   3.206500   2.850752   5.215637   3.160704
    42  H    4.090686   3.206814   2.850450   5.215439   3.160125
    43  H    4.290902   2.538130   3.355021   5.619692   4.158637
    44  Co   4.144936   1.967688   4.240979   5.428919   5.583037
                   26         27         28         29         30
    26  C    0.000000
    27  H    2.164667   0.000000
    28  C    1.386530   3.410645   0.000000
    29  H    3.414592   5.009304   2.171428   0.000000
    30  H    1.085142   2.476201   2.144800   4.307047   0.000000
    31  H    2.143043   4.299601   1.086419   2.492442   2.464773
    32  N    3.755030   2.910606   4.141023   4.405610   4.675669
    33  N    4.119540   4.418256   3.719088   2.847449   5.202984
    34  N    8.326303   6.891859   8.769586   8.642064   9.137048
    35  N    9.581864   8.509266   9.737178   9.111287  10.515754
    36  C   10.196905   9.377020  10.166349   9.242961  11.191668
    37  H   10.863195  10.055771  10.812689   9.843695  11.858715
    38  H   10.862787  10.055413  10.812253   9.843226  11.858314
    39  H    9.493407   8.868996   9.351972   8.294769  10.520433
    40  C    5.209125   5.798995   4.495457   2.919346   6.285801
    41  H    5.372646   6.174473   4.523059   2.770520   6.415664
    42  H    5.372266   6.174360   4.522523   2.769770   6.415276
    43  H    6.120944   6.438000   5.520936   4.012212   7.205655
    44  Co   6.526489   5.770764   6.588264   6.006627   7.514121
                   31         32         33         34         35
    31  H    0.000000
    32  N    5.225354   0.000000
    33  N    4.638446   2.231401   0.000000
    34  N    9.849516   4.636948   5.840959   0.000000
    35  N   10.769470   5.840962   6.283801   2.231407   0.000000
    36  C   11.145314   6.557436   6.525827   3.617119   1.430001
    37  H   11.779563   7.250549   7.172560   4.226488   2.100400
    38  H   11.779118   7.250159   7.172113   4.226379   2.100435
    39  H   10.295932   5.981135   5.657588   3.908019   2.055648
    40  C    5.217929   3.617117   1.430002   6.557446   6.525839
    41  H    5.122526   4.226355   2.100440   7.250096   7.172056
    42  H    5.121904   4.226509   2.100402   7.250626   7.172637
    43  H    6.288027   3.908018   2.055647   5.981143   5.657598
    44  Co   7.612273   2.895812   3.160114   2.895822   3.160128
                   36         37         38         39         40
    36  C    0.000000
    37  H    1.097708   0.000000
    38  H    1.097712   1.784990   0.000000
    39  H    1.093053   1.772850   1.772873   0.000000
    40  C    6.451764   7.035359   7.034866   5.451612   0.000000
    41  H    7.034808   7.694301   7.483840   6.019231   1.097711
    42  H    7.035413   7.485038   7.694397   6.019726   1.097706
    43  H    5.451609   6.019663   6.019292   4.421317   1.093057
    44  Co   3.677832   4.403970   4.403549   3.098758   3.677831
                   41         42         43         44
    41  H    0.000000
    42  H    1.784988   0.000000
    43  H    1.772876   1.772848   0.000000
    44  Co   4.403489   4.404023   3.098756   0.000000
 Symmetry turned off by external request.
 Stoichiometry    C22H17CoN4
 Framework group  C1[X(C22H17CoN4)]
 Deg. of freedom   126
 Full point group                 C1      NOp   1
 Rotational constants (GHZ):           0.4617651           0.0994116           0.0818861
 General basis read from cards:  (5D, 7F)
 ======================================================================================================
                                       Pseudopotential Parameters
 ======================================================================================================
  Center     Atomic      Valence      Angular      Power
  Number     Number     Electrons     Momentum     of R      Exponent        Coefficient   SO-Coeffient
 ======================================================================================================
    1          6
                                   No pseudopotential on this center.
    2          6
                                   No pseudopotential on this center.
    3          6
                                   No pseudopotential on this center.
    4          6
                                   No pseudopotential on this center.
    5          6
                                   No pseudopotential on this center.
    6          6
                                   No pseudopotential on this center.
    7          1
                                   No pseudopotential on this center.
    8          1
                                   No pseudopotential on this center.
    9          1
                                   No pseudopotential on this center.
   10          6
                                   No pseudopotential on this center.
   11          6
                                   No pseudopotential on this center.
   12          6
                                   No pseudopotential on this center.
   13          6
                                   No pseudopotential on this center.
   14          6
                                   No pseudopotential on this center.
   15          6
                                   No pseudopotential on this center.
   16          1
                                   No pseudopotential on this center.
   17          6
                                   No pseudopotential on this center.
   18          1
                                   No pseudopotential on this center.
   19          1
                                   No pseudopotential on this center.
   20          1
                                   No pseudopotential on this center.
   21          6
                                   No pseudopotential on this center.
   22          6
                                   No pseudopotential on this center.
   23          6
                                   No pseudopotential on this center.
   24          6
                                   No pseudopotential on this center.
   25          6
                                   No pseudopotential on this center.
   26          6
                                   No pseudopotential on this center.
   27          1
                                   No pseudopotential on this center.
   28          6
                                   No pseudopotential on this center.
   29          1
                                   No pseudopotential on this center.
   30          1
                                   No pseudopotential on this center.
   31          1
                                   No pseudopotential on this center.
   32          7
                                   No pseudopotential on this center.
   33          7
                                   No pseudopotential on this center.
   34          7
                                   No pseudopotential on this center.
   35          7
                                   No pseudopotential on this center.
   36          6
                                   No pseudopotential on this center.
   37          1
                                   No pseudopotential on this center.
   38          1
                                   No pseudopotential on this center.
   39          1
                                   No pseudopotential on this center.
   40          6
                                   No pseudopotential on this center.
   41          1
                                   No pseudopotential on this center.
   42          1
                                   No pseudopotential on this center.
   43          1
                                   No pseudopotential on this center.
   44         27           17
                                      F and up 
                                                     2        1.0000000        0.00000000    0.00000000
                                      S - F
                                                     2       23.6600000      283.96056600    0.00000000
                                                     2       10.6100000       47.15684600    0.00000000
                                      P - F
                                                     2       25.0400000      182.21223600    0.00000000
                                                     2       10.4400000       35.23335200    0.00000000
                                      D - F
                                                     2       29.5400000      -26.47533300    0.00000000
                                                     2       10.1800000       -1.82578700    0.00000000
 ======================================================================================================
   441 basis functions,   871 primitive gaussians,   473 cartesian basis functions
    97 alpha electrons       97 beta electrons
       nuclear repulsion energy      2477.2567566154 Hartrees.
 NAtoms=   44 NActive=   44 NUniq=   44 SFac= 1.00D+00 NAtFMM=   60 NAOKFM=F Big=F
 Integral buffers will be    131072 words long.
 Raffenetti 2 integral format.
 Two-electron integral symmetry is turned off.
 Nuclear repulsion after empirical dispersion term =     2477.1978041716 Hartrees.
 One-electron integrals computed using PRISM.
   1 Symmetry operations used in ECPInt.
 ECPInt:  NShTT=   11781 NPrTT=   71406 LenC2=    9496 LenP2D=   31942.
 LDataN:  DoStor=T MaxTD1= 6 Len=  172
 NBasis=   441 RedAO= T EigKep=  3.23D-04  NBF=   441
 NBsUse=   441 1.00D-06 EigRej= -1.00D+00 NBFU=   441
 Initial guess from the checkpoint file:  "a.chk"
 B after Tr=    -0.000000    0.000433    0.000003
         Rot=    1.000000    0.000000    0.000000    0.000000 Ang=   0.00 deg.
 Initial guess <Sx>= 0.0000 <Sy>= 0.0000 <Sz>= 0.0000 <S**2>= 0.0000 S= 0.0000
 Requested convergence on RMS density matrix=1.00D-08 within  64 cycles.
 Requested convergence on MAX density matrix=1.00D-06.
 Requested convergence on             energy=1.00D-06.
 No special actions if energy rises.
 EnCoef did     3 forward-backward iterations
 EnCoef did     2 forward-backward iterations
 SCF Done:  E(UPBE1PBE) =  -1212.11186076     A.U. after   13 cycles
            NFock= 13  Conv=0.48D-08     -V/T= 2.0553
 <Sx>= 0.0000 <Sy>= 0.0000 <Sz>= 0.0000 <S**2>= 0.0000 S= 0.0000
 <L.S>=  0.00000000000    
 Annihilation of the first spin contaminant:
 S**2 before annihilation     0.0000,   after    -0.0000
 QCSCF skips out because SCF is already converged.

 **********************************************************************

            Population analysis using the SCF Density.

 **********************************************************************

 Alpha  occ. eigenvalues --  -14.45849 -14.45849 -14.45352 -14.45352 -10.28502
 Alpha  occ. eigenvalues --  -10.28501 -10.27770 -10.27770 -10.27544 -10.27543
 Alpha  occ. eigenvalues --  -10.27287 -10.27287 -10.25410 -10.25410 -10.24200
 Alpha  occ. eigenvalues --  -10.24199 -10.23983 -10.23983 -10.23498 -10.23498
 Alpha  occ. eigenvalues --  -10.23436 -10.23435 -10.21545 -10.21542 -10.21151
 Alpha  occ. eigenvalues --  -10.19251  -3.83034  -2.34811  -2.34723  -2.30918
 Alpha  occ. eigenvalues --   -1.05775  -1.05714  -0.96946  -0.96620  -0.88173
 Alpha  occ. eigenvalues --   -0.87936  -0.84949  -0.80271  -0.78762  -0.77889
 Alpha  occ. eigenvalues --   -0.77792  -0.75570  -0.74971  -0.72962  -0.71795
 Alpha  occ. eigenvalues --   -0.66505  -0.65185  -0.64565  -0.64082  -0.62556
 Alpha  occ. eigenvalues --   -0.61365  -0.58915  -0.57199  -0.56621  -0.54109
 Alpha  occ. eigenvalues --   -0.53188  -0.52039  -0.49608  -0.49552  -0.49022
 Alpha  occ. eigenvalues --   -0.48249  -0.47890  -0.47539  -0.46596  -0.46103
 Alpha  occ. eigenvalues --   -0.45793  -0.45373  -0.45010  -0.44493  -0.43972
 Alpha  occ. eigenvalues --   -0.42401  -0.41906  -0.41100  -0.38519  -0.38414
 Alpha  occ. eigenvalues --   -0.38370  -0.37483  -0.36857  -0.36747  -0.36695
 Alpha  occ. eigenvalues --   -0.34906  -0.34676  -0.34451  -0.33867  -0.31609
 Alpha  occ. eigenvalues --   -0.29027  -0.26697  -0.25933  -0.24713  -0.24414
 Alpha  occ. eigenvalues --   -0.21560  -0.21328  -0.20483  -0.20110  -0.16407
 Alpha  occ. eigenvalues --   -0.15237  -0.14771
 Alpha virt. eigenvalues --   -0.04485  -0.02502  -0.00771  -0.00135   0.00850
 Alpha virt. eigenvalues --    0.01328   0.01972   0.03207   0.05325   0.05963
 Alpha virt. eigenvalues --    0.06135   0.07279   0.08771   0.09273   0.10063
 Alpha virt. eigenvalues --    0.10298   0.12604   0.13147   0.14082   0.14280
 Alpha virt. eigenvalues --    0.15221   0.15515   0.15903   0.16007   0.16502
 Alpha virt. eigenvalues --    0.16782   0.16957   0.17604   0.17794   0.18242
 Alpha virt. eigenvalues --    0.19139   0.19179   0.19722   0.20217   0.21955
 Alpha virt. eigenvalues --    0.22092   0.22439   0.22674   0.22679   0.23623
 Alpha virt. eigenvalues --    0.25751   0.25765   0.26348   0.27601   0.27659
 Alpha virt. eigenvalues --    0.28176   0.29335   0.29439   0.30408   0.30787
 Alpha virt. eigenvalues --    0.31597   0.33197   0.33545   0.34466   0.34479
 Alpha virt. eigenvalues --    0.36222   0.37721   0.37926   0.39384   0.39533
 Alpha virt. eigenvalues --    0.41573   0.43049   0.44500   0.44957   0.46073
 Alpha virt. eigenvalues --    0.47224   0.47851   0.50116   0.51191   0.51794
 Alpha virt. eigenvalues --    0.52351   0.53531   0.53734   0.55908   0.55976
 Alpha virt. eigenvalues --    0.56820   0.56820   0.56900   0.58127   0.58338
 Alpha virt. eigenvalues --    0.58545   0.59002   0.59263   0.60097   0.61378
 Alpha virt. eigenvalues --    0.61523   0.61878   0.63096   0.63120   0.63171
 Alpha virt. eigenvalues --    0.63307   0.63321   0.63377   0.63934   0.64395
 Alpha virt. eigenvalues --    0.65267   0.65617   0.66201   0.66779   0.67048
 Alpha virt. eigenvalues --    0.67629   0.68008   0.68357   0.69261   0.70883
 Alpha virt. eigenvalues --    0.72194   0.72470   0.73923   0.75776   0.76195
 Alpha virt. eigenvalues --    0.76288   0.76906   0.78182   0.79539   0.80011
 Alpha virt. eigenvalues --    0.80990   0.81934   0.82540   0.83030   0.83686
 Alpha virt. eigenvalues --    0.84206   0.84311   0.84965   0.86254   0.86674
 Alpha virt. eigenvalues --    0.86948   0.87199   0.87413   0.89624   0.90102
 Alpha virt. eigenvalues --    0.90435   0.91196   0.91636   0.92015   0.92789
 Alpha virt. eigenvalues --    0.93181   0.93471   0.95304   0.95342   0.95908
 Alpha virt. eigenvalues --    0.95920   0.97151   0.97747   0.97788   0.98125
 Alpha virt. eigenvalues --    0.98298   1.00007   1.00073   1.01559   1.02189
 Alpha virt. eigenvalues --    1.02841   1.03101   1.03846   1.06171   1.07306
 Alpha virt. eigenvalues --    1.08833   1.09548   1.10704   1.11406   1.13739
 Alpha virt. eigenvalues --    1.14753   1.15874   1.15972   1.16541   1.18269
 Alpha virt. eigenvalues --    1.18349   1.19011   1.20050   1.23634   1.24071
 Alpha virt. eigenvalues --    1.24470   1.25012   1.26676   1.27299   1.27365
 Alpha virt. eigenvalues --    1.29151   1.29241   1.29989   1.32510   1.33273
 Alpha virt. eigenvalues --    1.33740   1.36257   1.36408   1.37093   1.38854
 Alpha virt. eigenvalues --    1.40106   1.41575   1.42620   1.42718   1.43352
 Alpha virt. eigenvalues --    1.44964   1.45241   1.45341   1.45925   1.47512
 Alpha virt. eigenvalues --    1.47873   1.49216   1.49951   1.49957   1.50703
 Alpha virt. eigenvalues --    1.51157   1.51405   1.53045   1.53907   1.56758
 Alpha virt. eigenvalues --    1.56979   1.58617   1.62246   1.65404   1.65414
 Alpha virt. eigenvalues --    1.65711   1.70232   1.72465   1.72585   1.76666
 Alpha virt. eigenvalues --    1.77214   1.78260   1.79563   1.79712   1.81894
 Alpha virt. eigenvalues --    1.82462   1.85506   1.86471   1.86650   1.87261
 Alpha virt. eigenvalues --    1.88085   1.88453   1.89742   1.90898   1.91546
 Alpha virt. eigenvalues --    1.92841   1.94749   1.94888   1.96301   1.96674
 Alpha virt. eigenvalues --    1.97729   1.98210   1.98371   1.98741   1.98869
 Alpha virt. eigenvalues --    1.99307   2.00148   2.01226   2.02214   2.03313
 Alpha virt. eigenvalues --    2.05972   2.06340   2.06986   2.09819   2.09867
 Alpha virt. eigenvalues --    2.12126   2.12850   2.14233   2.14929   2.14952
 Alpha virt. eigenvalues --    2.16004   2.16518   2.16551   2.18895   2.19659
 Alpha virt. eigenvalues --    2.20381   2.21372   2.21556   2.22251   2.23581
 Alpha virt. eigenvalues --    2.24495   2.24852   2.26091   2.27037   2.27538
 Alpha virt. eigenvalues --    2.27592   2.27889   2.28105   2.28302   2.28686
 Alpha virt. eigenvalues --    2.32639   2.34419   2.38799   2.39199   2.40268
 Alpha virt. eigenvalues --    2.40301   2.43955   2.44213   2.45239   2.46482
 Alpha virt. eigenvalues --    2.51281   2.51389   2.52162   2.56960   2.58256
 Alpha virt. eigenvalues --    2.58785   2.59422   2.59747   2.60351   2.62293
 Alpha virt. eigenvalues --    2.63678   2.65021   2.66471   2.67741   2.68990
 Alpha virt. eigenvalues --    2.69405   2.69405   2.71745   2.73186   2.74526
 Alpha virt. eigenvalues --    2.74852   2.74969   2.77297   2.78476   2.79183
 Alpha virt. eigenvalues --    2.79879   2.82896   2.84671   2.88136   2.88386
 Alpha virt. eigenvalues --    2.93435   2.93439   2.97111   2.98459   2.99365
 Alpha virt. eigenvalues --    3.00422   3.05676   3.06740   3.14587   3.17957
 Alpha virt. eigenvalues --    3.18880   3.29004   3.39115   3.46292   3.46524
 Alpha virt. eigenvalues --    3.51711   3.52009   3.60867   5.66786   5.67123
 Alpha virt. eigenvalues --    5.67443   5.68240   5.68875   5.69762   5.71742
 Alpha virt. eigenvalues --   45.82259  45.96360  46.01379  63.11683
  Beta  occ. eigenvalues --  -14.45849 -14.45849 -14.45352 -14.45352 -10.28502
  Beta  occ. eigenvalues --  -10.28501 -10.27770 -10.27770 -10.27544 -10.27543
  Beta  occ. eigenvalues --  -10.27287 -10.27287 -10.25410 -10.25410 -10.24200
  Beta  occ. eigenvalues --  -10.24199 -10.23983 -10.23983 -10.23498 -10.23498
  Beta  occ. eigenvalues --  -10.23436 -10.23435 -10.21545 -10.21542 -10.21151
  Beta  occ. eigenvalues --  -10.19251  -3.83034  -2.34810  -2.34723  -2.30917
  Beta  occ. eigenvalues --   -1.05775  -1.05714  -0.96946  -0.96620  -0.88173
  Beta  occ. eigenvalues --   -0.87936  -0.84949  -0.80271  -0.78762  -0.77889
  Beta  occ. eigenvalues --   -0.77792  -0.75570  -0.74971  -0.72962  -0.71795
  Beta  occ. eigenvalues --   -0.66505  -0.65185  -0.64565  -0.64082  -0.62556
  Beta  occ. eigenvalues --   -0.61365  -0.58915  -0.57199  -0.56621  -0.54109
  Beta  occ. eigenvalues --   -0.53188  -0.52039  -0.49608  -0.49552  -0.49022
  Beta  occ. eigenvalues --   -0.48249  -0.47890  -0.47539  -0.46596  -0.46103
  Beta  occ. eigenvalues --   -0.45793  -0.45373  -0.45010  -0.44493  -0.43972
  Beta  occ. eigenvalues --   -0.42401  -0.41906  -0.41100  -0.38519  -0.38414
  Beta  occ. eigenvalues --   -0.38370  -0.37483  -0.36857  -0.36747  -0.36695
  Beta  occ. eigenvalues --   -0.34906  -0.34676  -0.34451  -0.33867  -0.31609
  Beta  occ. eigenvalues --   -0.29027  -0.26697  -0.25933  -0.24713  -0.24414
  Beta  occ. eigenvalues --   -0.21560  -0.21328  -0.20483  -0.20109  -0.16407
  Beta  occ. eigenvalues --   -0.15237  -0.14770
  Beta virt. eigenvalues --   -0.04485  -0.02501  -0.00771  -0.00135   0.00850
  Beta virt. eigenvalues --    0.01328   0.01972   0.03207   0.05325   0.05963
  Beta virt. eigenvalues --    0.06135   0.07279   0.08771   0.09273   0.10063
  Beta virt. eigenvalues --    0.10298   0.12604   0.13147   0.14082   0.14280
  Beta virt. eigenvalues --    0.15221   0.15515   0.15903   0.16007   0.16502
  Beta virt. eigenvalues --    0.16782   0.16957   0.17604   0.17794   0.18242
  Beta virt. eigenvalues --    0.19139   0.19179   0.19722   0.20217   0.21955
  Beta virt. eigenvalues --    0.22092   0.22439   0.22674   0.22679   0.23623
  Beta virt. eigenvalues --    0.25751   0.25765   0.26348   0.27601   0.27659
  Beta virt. eigenvalues --    0.28176   0.29335   0.29439   0.30408   0.30787
  Beta virt. eigenvalues --    0.31597   0.33197   0.33545   0.34466   0.34479
  Beta virt. eigenvalues --    0.36222   0.37721   0.37926   0.39384   0.39533
  Beta virt. eigenvalues --    0.41573   0.43049   0.44500   0.44957   0.46073
  Beta virt. eigenvalues --    0.47224   0.47851   0.50116   0.51191   0.51794
  Beta virt. eigenvalues --    0.52351   0.53531   0.53734   0.55908   0.55976
  Beta virt. eigenvalues --    0.56820   0.56820   0.56900   0.58127   0.58338
  Beta virt. eigenvalues --    0.58545   0.59002   0.59263   0.60097   0.61378
  Beta virt. eigenvalues --    0.61523   0.61878   0.63096   0.63120   0.63171
  Beta virt. eigenvalues --    0.63307   0.63321   0.63377   0.63934   0.64395
  Beta virt. eigenvalues --    0.65267   0.65617   0.66201   0.66779   0.67048
  Beta virt. eigenvalues --    0.67629   0.68008   0.68357   0.69261   0.70883
  Beta virt. eigenvalues --    0.72194   0.72470   0.73923   0.75776   0.76195
  Beta virt. eigenvalues --    0.76288   0.76906   0.78182   0.79539   0.80011
  Beta virt. eigenvalues --    0.80990   0.81934   0.82540   0.83030   0.83686
  Beta virt. eigenvalues --    0.84206   0.84311   0.84965   0.86254   0.86674
  Beta virt. eigenvalues --    0.86948   0.87199   0.87413   0.89624   0.90102
  Beta virt. eigenvalues --    0.90435   0.91196   0.91636   0.92015   0.92789
  Beta virt. eigenvalues --    0.93181   0.93471   0.95304   0.95342   0.95908
  Beta virt. eigenvalues --    0.95920   0.97151   0.97747   0.97788   0.98125
  Beta virt. eigenvalues --    0.98298   1.00007   1.00073   1.01559   1.02189
  Beta virt. eigenvalues --    1.02841   1.03101   1.03846   1.06171   1.07306
  Beta virt. eigenvalues --    1.08833   1.09548   1.10704   1.11406   1.13739
  Beta virt. eigenvalues --    1.14753   1.15874   1.15972   1.16541   1.18269
  Beta virt. eigenvalues --    1.18349   1.19011   1.20050   1.23634   1.24071
  Beta virt. eigenvalues --    1.24470   1.25012   1.26676   1.27299   1.27365
  Beta virt. eigenvalues --    1.29151   1.29241   1.29989   1.32510   1.33273
  Beta virt. eigenvalues --    1.33740   1.36257   1.36408   1.37093   1.38854
  Beta virt. eigenvalues --    1.40106   1.41575   1.42620   1.42718   1.43352
  Beta virt. eigenvalues --    1.44964   1.45241   1.45341   1.45925   1.47512
  Beta virt. eigenvalues --    1.47873   1.49216   1.49951   1.49957   1.50703
  Beta virt. eigenvalues --    1.51157   1.51405   1.53045   1.53907   1.56758
  Beta virt. eigenvalues --    1.56979   1.58617   1.62246   1.65404   1.65414
  Beta virt. eigenvalues --    1.65711   1.70232   1.72465   1.72585   1.76666
  Beta virt. eigenvalues --    1.77214   1.78260   1.79563   1.79712   1.81894
  Beta virt. eigenvalues --    1.82462   1.85506   1.86471   1.86650   1.87261
  Beta virt. eigenvalues --    1.88085   1.88453   1.89742   1.90898   1.91546
  Beta virt. eigenvalues --    1.92841   1.94749   1.94888   1.96301   1.96674
  Beta virt. eigenvalues --    1.97729   1.98210   1.98371   1.98741   1.98869
  Beta virt. eigenvalues --    1.99307   2.00148   2.01226   2.02214   2.03313
  Beta virt. eigenvalues --    2.05972   2.06340   2.06986   2.09819   2.09867
  Beta virt. eigenvalues --    2.12126   2.12850   2.14233   2.14929   2.14952
  Beta virt. eigenvalues --    2.16004   2.16518   2.16551   2.18895   2.19659
  Beta virt. eigenvalues --    2.20381   2.21372   2.21556   2.22250   2.23581
  Beta virt. eigenvalues --    2.24495   2.24852   2.26091   2.27037   2.27538
  Beta virt. eigenvalues --    2.27592   2.27889   2.28105   2.28302   2.28686
  Beta virt. eigenvalues --    2.32639   2.34419   2.38799   2.39199   2.40268
  Beta virt. eigenvalues --    2.40301   2.43955   2.44213   2.45239   2.46482
  Beta virt. eigenvalues --    2.51281   2.51389   2.52162   2.56960   2.58256
  Beta virt. eigenvalues --    2.58785   2.59422   2.59747   2.60351   2.62293
  Beta virt. eigenvalues --    2.63678   2.65021   2.66471   2.67741   2.68990
  Beta virt. eigenvalues --    2.69405   2.69405   2.71745   2.73186   2.74526
  Beta virt. eigenvalues --    2.74852   2.74969   2.77297   2.78476   2.79183
  Beta virt. eigenvalues --    2.79879   2.82896   2.84671   2.88136   2.88386
  Beta virt. eigenvalues --    2.93435   2.93439   2.97111   2.98459   2.99365
  Beta virt. eigenvalues --    3.00422   3.05676   3.06740   3.14587   3.17957
  Beta virt. eigenvalues --    3.18880   3.29004   3.39115   3.46292   3.46524
  Beta virt. eigenvalues --    3.51711   3.52009   3.60867   5.66786   5.67124
  Beta virt. eigenvalues --    5.67444   5.68240   5.68876   5.69762   5.71742
  Beta virt. eigenvalues --   45.82259  45.96361  46.01379  63.11683
          Condensed to atoms (all electrons):
               1          2          3          4          5          6
     1  C    5.090621   0.526273  -0.060631  -0.058629  -0.060631   0.526277
     2  C    0.526273   4.619967   0.518340  -0.019153  -0.040390  -0.018166
     3  C   -0.060631   0.518340   5.051969   0.537231  -0.031137  -0.040391
     4  C   -0.058629  -0.019153   0.537231   4.908218   0.537229  -0.019153
     5  C   -0.060631  -0.040390  -0.031137   0.537229   5.051975   0.518338
     6  C    0.526277  -0.018166  -0.040391  -0.019153   0.518338   4.619968
     7  H    0.006271  -0.039522   0.340018  -0.040654   0.003992   0.000912
     8  H    0.001538   0.002710  -0.036103   0.365263  -0.036103   0.002710
     9  H    0.006271   0.000912   0.003992  -0.040654   0.340020  -0.039522
    10  C    0.005447  -0.000040   0.000004   0.000112  -0.004391  -0.043842
    11  C    0.002491   0.001759  -0.000031   0.000022   0.002991  -0.060453
    12  C   -0.000593   0.000002  -0.000000   0.000001   0.000099   0.006703
    13  C    0.000123   0.000000  -0.000001   0.000040   0.001951  -0.003103
    14  C    0.000002  -0.000000   0.000000  -0.000000   0.000002  -0.000027
    15  C    0.000002  -0.000000   0.000000  -0.000001   0.000072   0.000052
    16  H   -0.000020   0.000000   0.000001   0.000072   0.000150   0.000797
    17  C    0.000000   0.000000   0.000000   0.000000  -0.000001  -0.000003
    18  H   -0.000000   0.000000   0.000000   0.000000  -0.000000   0.000002
    19  H   -0.000000   0.000000  -0.000000   0.000000   0.000001  -0.000002
    20  H    0.000000  -0.000000   0.000000  -0.000000  -0.000000  -0.000000
    21  C    0.005447  -0.043843  -0.004392   0.000112   0.000004  -0.000040
    22  C    0.002491  -0.060453   0.002991   0.000022  -0.000031   0.001759
    23  C   -0.000593   0.006703   0.000099   0.000001  -0.000000   0.000002
    24  C    0.000123  -0.003103   0.001951   0.000040  -0.000001   0.000000
    25  C    0.000002  -0.000027   0.000002  -0.000000   0.000000  -0.000000
    26  C    0.000002   0.000052   0.000072  -0.000001   0.000000  -0.000000
    27  H   -0.000020   0.000797   0.000150   0.000072   0.000001   0.000000
    28  C    0.000000  -0.000003  -0.000001   0.000000   0.000000   0.000000
    29  H   -0.000000   0.000002  -0.000000   0.000000   0.000000   0.000000
    30  H   -0.000000  -0.000002   0.000001   0.000000  -0.000000   0.000000
    31  H    0.000000  -0.000000  -0.000000  -0.000000   0.000000  -0.000000
    32  N   -0.041330   0.245149  -0.076787   0.004549   0.000018   0.006074
    33  N    0.001637   0.006142  -0.000145   0.000001   0.000000  -0.000034
    34  N   -0.041330   0.006074   0.000018   0.004548  -0.076786   0.245148
    35  N    0.001637  -0.000034   0.000000   0.000001  -0.000145   0.006142
    36  C   -0.000009   0.000000   0.000000  -0.000000   0.000002  -0.000027
    37  H   -0.000001  -0.000000   0.000000   0.000000  -0.000000   0.000003
    38  H   -0.000001  -0.000000   0.000000   0.000000  -0.000000   0.000003
    39  H   -0.000013   0.000001   0.000000  -0.000000   0.000000  -0.000007
    40  C   -0.000009  -0.000027   0.000002  -0.000000   0.000000   0.000000
    41  H   -0.000001   0.000003  -0.000000   0.000000   0.000000  -0.000000
    42  H   -0.000001   0.000003  -0.000000   0.000000   0.000000  -0.000000
    43  H   -0.000013  -0.000007   0.000000  -0.000000   0.000000   0.000001
    44  Co   0.256562  -0.055493   0.006879   0.002212   0.006879  -0.055494
               7          8          9         10         11         12
     1  C    0.006271   0.001538   0.006271   0.005447   0.002491  -0.000593
     2  C   -0.039522   0.002710   0.000912  -0.000040   0.001759   0.000002
     3  C    0.340018  -0.036103   0.003992   0.000004  -0.000031  -0.000000
     4  C   -0.040654   0.365263  -0.040654   0.000112   0.000022   0.000001
     5  C    0.003992  -0.036103   0.340020  -0.004391   0.002991   0.000099
     6  C    0.000912   0.002710  -0.039522  -0.043842  -0.060453   0.006703
     7  H    0.574289  -0.004128  -0.000090  -0.000000  -0.000000   0.000000
     8  H   -0.004128   0.551898  -0.004127  -0.000002   0.000001  -0.000000
     9  H   -0.000090  -0.004127   0.574286   0.000431  -0.000172  -0.000038
    10  C   -0.000000  -0.000002   0.000431   4.639877  -0.066175   0.516364
    11  C   -0.000000   0.000001  -0.000172  -0.066175   4.791591  -0.053457
    12  C    0.000000  -0.000000  -0.000038   0.516364  -0.053457   4.662165
    13  C   -0.000000   0.000002  -0.000303   0.534826   0.004276  -0.055302
    14  C   -0.000000   0.000000  -0.000000  -0.048425   0.004631   0.531662
    15  C   -0.000000   0.000000   0.000103  -0.006514  -0.000052  -0.037781
    16  H    0.000000  -0.000009   0.006178  -0.032994  -0.000148   0.003721
    17  C    0.000000  -0.000000   0.000002  -0.038758  -0.000053  -0.008673
    18  H    0.000000  -0.000000  -0.000000   0.003866  -0.000198  -0.037738
    19  H    0.000000   0.000000  -0.000008   0.001940   0.000003   0.000911
    20  H   -0.000000  -0.000000   0.000000   0.000876   0.000002   0.002280
    21  C    0.000431  -0.000002  -0.000000  -0.000000  -0.000006   0.000000
    22  C   -0.000172   0.000001  -0.000000  -0.000006  -0.011125  -0.000001
    23  C   -0.000038  -0.000000   0.000000   0.000000  -0.000001  -0.000000
    24  C   -0.000303   0.000002  -0.000000   0.000000   0.000000   0.000000
    25  C   -0.000000   0.000000  -0.000000  -0.000000   0.000000   0.000000
    26  C    0.000103   0.000000  -0.000000  -0.000000  -0.000000   0.000000
    27  H    0.006178  -0.000009   0.000000   0.000000   0.000000  -0.000000
    28  C    0.000002  -0.000000   0.000000   0.000000  -0.000000  -0.000000
    29  H   -0.000000  -0.000000   0.000000   0.000000   0.000000  -0.000000
    30  H   -0.000008   0.000000   0.000000   0.000000   0.000000  -0.000000
    31  H    0.000000  -0.000000  -0.000000   0.000000   0.000000   0.000000
    32  N   -0.003359  -0.000095   0.000009   0.000000   0.000236   0.000000
    33  N   -0.000000  -0.000000  -0.000000   0.000000   0.000021   0.000000
    34  N    0.000009  -0.000095  -0.003359   0.255230   0.350364  -0.041234
    35  N   -0.000000  -0.000000  -0.000000  -0.046507   0.301872   0.259865
    36  C   -0.000000   0.000000  -0.000000   0.005413  -0.045174  -0.048267
    37  H    0.000000  -0.000000   0.000000  -0.000125   0.000570  -0.001028
    38  H    0.000000  -0.000000   0.000000  -0.000125   0.000564  -0.001025
    39  H    0.000000   0.000000   0.000000   0.000010   0.000656   0.002682
    40  C   -0.000000   0.000000  -0.000000   0.000000   0.000012   0.000000
    41  H    0.000000  -0.000000   0.000000  -0.000000  -0.000000  -0.000000
    42  H    0.000000  -0.000000   0.000000  -0.000000  -0.000000  -0.000000
    43  H    0.000000   0.000000   0.000000  -0.000000  -0.000002  -0.000000
    44  Co  -0.000635   0.000127  -0.000635   0.006949   0.362562   0.005910
              13         14         15         16         17         18
     1  C    0.000123   0.000002   0.000002  -0.000020   0.000000  -0.000000
     2  C    0.000000  -0.000000  -0.000000   0.000000   0.000000   0.000000
     3  C   -0.000001   0.000000   0.000000   0.000001   0.000000   0.000000
     4  C    0.000040  -0.000000  -0.000001   0.000072   0.000000   0.000000
     5  C    0.001951   0.000002   0.000072   0.000150  -0.000001  -0.000000
     6  C   -0.003103  -0.000027   0.000052   0.000797  -0.000003   0.000002
     7  H   -0.000000  -0.000000  -0.000000   0.000000   0.000000   0.000000
     8  H    0.000002   0.000000   0.000000  -0.000009  -0.000000  -0.000000
     9  H   -0.000303  -0.000000   0.000103   0.006178   0.000002  -0.000000
    10  C    0.534826  -0.048425  -0.006514  -0.032994  -0.038758   0.003866
    11  C    0.004276   0.004631  -0.000052  -0.000148  -0.000053  -0.000198
    12  C   -0.055302   0.531662  -0.037781   0.003721  -0.008673  -0.037738
    13  C    5.021401  -0.045235   0.511965   0.356019  -0.035779   0.000277
    14  C   -0.045235   5.027202  -0.037569   0.000444   0.519008   0.362514
    15  C    0.511965  -0.037569   4.896722  -0.036078   0.554344   0.003926
    16  H    0.356019   0.000444  -0.036078   0.510717   0.003707   0.000013
    17  C   -0.035779   0.519008   0.554344   0.003707   4.887479  -0.035667
    18  H    0.000277   0.362514   0.003926   0.000013  -0.035667   0.532731
    19  H   -0.035345   0.004007   0.369107  -0.003995  -0.036179  -0.000149
    20  H    0.003993  -0.036460  -0.036327  -0.000148   0.368453  -0.004203
    21  C    0.000000  -0.000000  -0.000000   0.000000   0.000000   0.000000
    22  C    0.000000   0.000000  -0.000000   0.000000  -0.000000   0.000000
    23  C    0.000000   0.000000   0.000000  -0.000000  -0.000000  -0.000000
    24  C    0.000000  -0.000000   0.000000   0.000000   0.000000   0.000000
    25  C   -0.000000  -0.000000   0.000000  -0.000000  -0.000000   0.000000
    26  C    0.000000   0.000000  -0.000000  -0.000000  -0.000000   0.000000
    27  H    0.000000  -0.000000  -0.000000   0.000000   0.000000  -0.000000
    28  C    0.000000  -0.000000  -0.000000   0.000000   0.000000   0.000000
    29  H    0.000000   0.000000   0.000000  -0.000000   0.000000  -0.000000
    30  H   -0.000000  -0.000000   0.000000  -0.000000   0.000000   0.000000
    31  H   -0.000000   0.000000   0.000000  -0.000000   0.000000   0.000000
    32  N   -0.000000   0.000000   0.000000   0.000000   0.000000  -0.000000
    33  N    0.000000  -0.000000   0.000000   0.000000   0.000000  -0.000000
    34  N   -0.075648   0.009223   0.005014  -0.004920  -0.000222  -0.000091
    35  N    0.009677  -0.081338  -0.000190  -0.000098   0.005301  -0.007145
    36  C   -0.000122  -0.002588   0.000009   0.000003  -0.000106   0.004142
    37  H   -0.000009   0.002459  -0.000001  -0.000000  -0.000004   0.000498
    38  H   -0.000009   0.002457  -0.000001  -0.000000  -0.000004   0.000496
    39  H    0.000005   0.000009  -0.000000  -0.000000   0.000001  -0.000031
    40  C    0.000000   0.000000  -0.000000   0.000000   0.000000  -0.000000
    41  H   -0.000000  -0.000000   0.000000  -0.000000   0.000000  -0.000000
    42  H   -0.000000  -0.000000   0.000000  -0.000000   0.000000  -0.000000
    43  H   -0.000000   0.000000  -0.000000   0.000000  -0.000000   0.000000
    44  Co  -0.001254  -0.001312   0.000163   0.000048   0.000144   0.000025
              19         20         21         22         23         24
     1  C   -0.000000   0.000000   0.005447   0.002491  -0.000593   0.000123
     2  C    0.000000  -0.000000  -0.043843  -0.060453   0.006703  -0.003103
     3  C   -0.000000   0.000000  -0.004392   0.002991   0.000099   0.001951
     4  C    0.000000  -0.000000   0.000112   0.000022   0.000001   0.000040
     5  C    0.000001  -0.000000   0.000004  -0.000031  -0.000000  -0.000001
     6  C   -0.000002  -0.000000  -0.000040   0.001759   0.000002   0.000000
     7  H    0.000000  -0.000000   0.000431  -0.000172  -0.000038  -0.000303
     8  H    0.000000  -0.000000  -0.000002   0.000001  -0.000000   0.000002
     9  H   -0.000008   0.000000  -0.000000  -0.000000   0.000000  -0.000000
    10  C    0.001940   0.000876  -0.000000  -0.000006   0.000000   0.000000
    11  C    0.000003   0.000002  -0.000006  -0.011125  -0.000001   0.000000
    12  C    0.000911   0.002280   0.000000  -0.000001  -0.000000   0.000000
    13  C   -0.035345   0.003993   0.000000   0.000000   0.000000   0.000000
    14  C    0.004007  -0.036460  -0.000000   0.000000   0.000000  -0.000000
    15  C    0.369107  -0.036327  -0.000000  -0.000000   0.000000   0.000000
    16  H   -0.003995  -0.000148   0.000000   0.000000  -0.000000   0.000000
    17  C   -0.036179   0.368453   0.000000  -0.000000  -0.000000   0.000000
    18  H   -0.000149  -0.004203   0.000000   0.000000  -0.000000   0.000000
    19  H    0.530201  -0.004539   0.000000   0.000000  -0.000000  -0.000000
    20  H   -0.004539   0.534410   0.000000   0.000000   0.000000  -0.000000
    21  C    0.000000   0.000000   4.639858  -0.066174   0.516354   0.534832
    22  C    0.000000   0.000000  -0.066174   4.791579  -0.053457   0.004276
    23  C   -0.000000   0.000000   0.516354  -0.053457   4.662161  -0.055305
    24  C   -0.000000  -0.000000   0.534832   0.004276  -0.055305   5.021419
    25  C   -0.000000   0.000000  -0.048425   0.004631   0.531669  -0.045243
    26  C    0.000000   0.000000  -0.006509  -0.000052  -0.037783   0.511963
    27  H   -0.000000  -0.000000  -0.032992  -0.000148   0.003721   0.356013
    28  C    0.000000   0.000000  -0.038759  -0.000053  -0.008669  -0.035776
    29  H    0.000000   0.000000   0.003866  -0.000198  -0.037739   0.000277
    30  H    0.000000   0.000000   0.001939   0.000003   0.000911  -0.035342
    31  H    0.000000   0.000000   0.000876   0.000002   0.002280   0.003993
    32  N    0.000000   0.000000   0.255229   0.350364  -0.041232  -0.075655
    33  N   -0.000000  -0.000000  -0.046503   0.301874   0.259862   0.009679
    34  N   -0.000086   0.000004   0.000000   0.000236   0.000000  -0.000000
    35  N    0.000004  -0.000096   0.000000   0.000021   0.000000   0.000000
    36  C   -0.000000  -0.000002   0.000000   0.000012   0.000000   0.000000
    37  H   -0.000000  -0.000000  -0.000000  -0.000000  -0.000000  -0.000000
    38  H   -0.000000  -0.000000  -0.000000  -0.000000  -0.000000  -0.000000
    39  H   -0.000000  -0.000000  -0.000000  -0.000002  -0.000000  -0.000000
    40  C    0.000000  -0.000000   0.005413  -0.045174  -0.048267  -0.000122
    41  H   -0.000000   0.000000  -0.000125   0.000564  -0.001025  -0.000009
    42  H   -0.000000   0.000000  -0.000125   0.000570  -0.001029  -0.000009
    43  H   -0.000000   0.000000   0.000010   0.000656   0.002683   0.000005
    44  Co   0.000011  -0.000010   0.006949   0.362561   0.005910  -0.001254
              25         26         27         28         29         30
     1  C    0.000002   0.000002  -0.000020   0.000000  -0.000000  -0.000000
     2  C   -0.000027   0.000052   0.000797  -0.000003   0.000002  -0.000002
     3  C    0.000002   0.000072   0.000150  -0.000001  -0.000000   0.000001
     4  C   -0.000000  -0.000001   0.000072   0.000000   0.000000   0.000000
     5  C    0.000000   0.000000   0.000001   0.000000   0.000000  -0.000000
     6  C   -0.000000  -0.000000   0.000000   0.000000   0.000000   0.000000
     7  H   -0.000000   0.000103   0.006178   0.000002  -0.000000  -0.000008
     8  H    0.000000   0.000000  -0.000009  -0.000000  -0.000000   0.000000
     9  H   -0.000000  -0.000000   0.000000   0.000000   0.000000   0.000000
    10  C   -0.000000  -0.000000   0.000000   0.000000   0.000000   0.000000
    11  C    0.000000  -0.000000   0.000000  -0.000000   0.000000   0.000000
    12  C    0.000000   0.000000  -0.000000  -0.000000  -0.000000  -0.000000
    13  C   -0.000000   0.000000   0.000000   0.000000   0.000000  -0.000000
    14  C   -0.000000   0.000000  -0.000000  -0.000000   0.000000  -0.000000
    15  C    0.000000  -0.000000  -0.000000  -0.000000   0.000000   0.000000
    16  H   -0.000000  -0.000000   0.000000   0.000000  -0.000000  -0.000000
    17  C   -0.000000  -0.000000   0.000000   0.000000   0.000000   0.000000
    18  H    0.000000   0.000000  -0.000000   0.000000  -0.000000   0.000000
    19  H   -0.000000   0.000000  -0.000000   0.000000   0.000000   0.000000
    20  H    0.000000   0.000000  -0.000000   0.000000   0.000000   0.000000
    21  C   -0.048425  -0.006509  -0.032992  -0.038759   0.003866   0.001939
    22  C    0.004631  -0.000052  -0.000148  -0.000053  -0.000198   0.000003
    23  C    0.531669  -0.037783   0.003721  -0.008669  -0.037739   0.000911
    24  C   -0.045243   0.511963   0.356013  -0.035776   0.000277  -0.035342
    25  C    5.027211  -0.037566   0.000444   0.519007   0.362510   0.004007
    26  C   -0.037566   4.896739  -0.036079   0.554327   0.003926   0.369110
    27  H    0.000444  -0.036079   0.510725   0.003707   0.000013  -0.003996
    28  C    0.519007   0.554327   0.003707   4.887498  -0.035669  -0.036179
    29  H    0.362510   0.003926   0.000013  -0.035669   0.532741  -0.000149
    30  H    0.004007   0.369110  -0.003996  -0.036179  -0.000149   0.530192
    31  H   -0.036457  -0.036328  -0.000148   0.368456  -0.004203  -0.004538
    32  N    0.009224   0.005014  -0.004921  -0.000222  -0.000091  -0.000086
    33  N   -0.081344  -0.000190  -0.000098   0.005301  -0.007145   0.000004
    34  N    0.000000   0.000000   0.000000   0.000000  -0.000000   0.000000
    35  N   -0.000000   0.000000   0.000000   0.000000  -0.000000  -0.000000
    36  C    0.000000  -0.000000   0.000000   0.000000  -0.000000   0.000000
    37  H   -0.000000   0.000000  -0.000000   0.000000  -0.000000  -0.000000
    38  H   -0.000000   0.000000  -0.000000   0.000000  -0.000000  -0.000000
    39  H    0.000000  -0.000000   0.000000  -0.000000   0.000000  -0.000000
    40  C   -0.002587   0.000009   0.000003  -0.000106   0.004142  -0.000000
    41  H    0.002457  -0.000001  -0.000000  -0.000004   0.000496  -0.000000
    42  H    0.002459  -0.000001  -0.000000  -0.000004   0.000498  -0.000000
    43  H    0.000009  -0.000000  -0.000000   0.000001  -0.000031  -0.000000
    44  Co  -0.001312   0.000163   0.000048   0.000144   0.000025   0.000011
              31         32         33         34         35         36
     1  C    0.000000  -0.041330   0.001637  -0.041330   0.001637  -0.000009
     2  C   -0.000000   0.245149   0.006142   0.006074  -0.000034   0.000000
     3  C   -0.000000  -0.076787  -0.000145   0.000018   0.000000   0.000000
     4  C   -0.000000   0.004549   0.000001   0.004548   0.000001  -0.000000
     5  C    0.000000   0.000018   0.000000  -0.076786  -0.000145   0.000002
     6  C   -0.000000   0.006074  -0.000034   0.245148   0.006142  -0.000027
     7  H    0.000000  -0.003359  -0.000000   0.000009  -0.000000  -0.000000
     8  H   -0.000000  -0.000095  -0.000000  -0.000095  -0.000000   0.000000
     9  H   -0.000000   0.000009  -0.000000  -0.003359  -0.000000  -0.000000
    10  C    0.000000   0.000000   0.000000   0.255230  -0.046507   0.005413
    11  C    0.000000   0.000236   0.000021   0.350364   0.301872  -0.045174
    12  C    0.000000   0.000000   0.000000  -0.041234   0.259865  -0.048267
    13  C   -0.000000  -0.000000   0.000000  -0.075648   0.009677  -0.000122
    14  C    0.000000   0.000000  -0.000000   0.009223  -0.081338  -0.002588
    15  C    0.000000   0.000000   0.000000   0.005014  -0.000190   0.000009
    16  H   -0.000000   0.000000   0.000000  -0.004920  -0.000098   0.000003
    17  C    0.000000   0.000000   0.000000  -0.000222   0.005301  -0.000106
    18  H    0.000000  -0.000000  -0.000000  -0.000091  -0.007145   0.004142
    19  H    0.000000   0.000000  -0.000000  -0.000086   0.000004  -0.000000
    20  H    0.000000   0.000000  -0.000000   0.000004  -0.000096  -0.000002
    21  C    0.000876   0.255229  -0.046503   0.000000   0.000000   0.000000
    22  C    0.000002   0.350364   0.301874   0.000236   0.000021   0.000012
    23  C    0.002280  -0.041232   0.259862   0.000000   0.000000   0.000000
    24  C    0.003993  -0.075655   0.009679  -0.000000   0.000000   0.000000
    25  C   -0.036457   0.009224  -0.081344   0.000000  -0.000000   0.000000
    26  C   -0.036328   0.005014  -0.000190   0.000000   0.000000  -0.000000
    27  H   -0.000148  -0.004921  -0.000098   0.000000   0.000000   0.000000
    28  C    0.368456  -0.000222   0.005301   0.000000   0.000000   0.000000
    29  H   -0.004203  -0.000091  -0.007145  -0.000000  -0.000000  -0.000000
    30  H   -0.004538  -0.000086   0.000004   0.000000  -0.000000   0.000000
    31  H    0.534402   0.000004  -0.000096   0.000000  -0.000000  -0.000000
    32  N    0.000004   7.221833  -0.060115  -0.000049   0.000000   0.000000
    33  N   -0.000096  -0.060115   7.064361   0.000000  -0.000000  -0.000000
    34  N    0.000000  -0.000049   0.000000   7.221824  -0.060115   0.004591
    35  N   -0.000000   0.000000  -0.000000  -0.060115   7.064356   0.300135
    36  C   -0.000000   0.000000  -0.000000   0.004591   0.300135   5.060296
    37  H    0.000000   0.000000   0.000000  -0.000066  -0.040821   0.376938
    38  H    0.000000   0.000000   0.000000  -0.000066  -0.040824   0.376945
    39  H    0.000000  -0.000000   0.000001   0.000158  -0.032515   0.376142
    40  C   -0.000002   0.004591   0.300134   0.000000  -0.000000   0.000000
    41  H   -0.000000  -0.000066  -0.040824   0.000000   0.000000  -0.000000
    42  H   -0.000000  -0.000066  -0.040820   0.000000   0.000000  -0.000000
    43  H   -0.000000   0.000158  -0.032516  -0.000000   0.000001  -0.000000
    44  Co  -0.000010  -0.071855  -0.054064  -0.071855  -0.054064  -0.007485
              37         38         39         40         41         42
     1  C   -0.000001  -0.000001  -0.000013  -0.000009  -0.000001  -0.000001
     2  C   -0.000000  -0.000000   0.000001  -0.000027   0.000003   0.000003
     3  C    0.000000   0.000000   0.000000   0.000002  -0.000000  -0.000000
     4  C    0.000000   0.000000  -0.000000  -0.000000   0.000000   0.000000
     5  C   -0.000000  -0.000000   0.000000   0.000000   0.000000   0.000000
     6  C    0.000003   0.000003  -0.000007   0.000000  -0.000000  -0.000000
     7  H    0.000000   0.000000   0.000000  -0.000000   0.000000   0.000000
     8  H   -0.000000  -0.000000   0.000000   0.000000  -0.000000  -0.000000
     9  H    0.000000   0.000000   0.000000  -0.000000   0.000000   0.000000
    10  C   -0.000125  -0.000125   0.000010   0.000000  -0.000000  -0.000000
    11  C    0.000570   0.000564   0.000656   0.000012  -0.000000  -0.000000
    12  C   -0.001028  -0.001025   0.002682   0.000000  -0.000000  -0.000000
    13  C   -0.000009  -0.000009   0.000005   0.000000  -0.000000  -0.000000
    14  C    0.002459   0.002457   0.000009   0.000000  -0.000000  -0.000000
    15  C   -0.000001  -0.000001  -0.000000  -0.000000   0.000000   0.000000
    16  H   -0.000000  -0.000000  -0.000000   0.000000  -0.000000  -0.000000
    17  C   -0.000004  -0.000004   0.000001   0.000000   0.000000   0.000000
    18  H    0.000498   0.000496  -0.000031  -0.000000  -0.000000  -0.000000
    19  H   -0.000000  -0.000000  -0.000000   0.000000  -0.000000  -0.000000
    20  H   -0.000000  -0.000000  -0.000000  -0.000000   0.000000   0.000000
    21  C   -0.000000  -0.000000  -0.000000   0.005413  -0.000125  -0.000125
    22  C   -0.000000  -0.000000  -0.000002  -0.045174   0.000564   0.000570
    23  C   -0.000000  -0.000000  -0.000000  -0.048267  -0.001025  -0.001029
    24  C   -0.000000  -0.000000  -0.000000  -0.000122  -0.000009  -0.000009
    25  C   -0.000000  -0.000000   0.000000  -0.002587   0.002457   0.002459
    26  C    0.000000   0.000000  -0.000000   0.000009  -0.000001  -0.000001
    27  H   -0.000000  -0.000000   0.000000   0.000003  -0.000000  -0.000000
    28  C    0.000000   0.000000  -0.000000  -0.000106  -0.000004  -0.000004
    29  H   -0.000000  -0.000000   0.000000   0.004142   0.000496   0.000498
    30  H   -0.000000  -0.000000  -0.000000  -0.000000  -0.000000  -0.000000
    31  H    0.000000   0.000000   0.000000  -0.000002  -0.000000  -0.000000
    32  N    0.000000   0.000000  -0.000000   0.004591  -0.000066  -0.000066
    33  N    0.000000   0.000000   0.000001   0.300134  -0.040824  -0.040820
    34  N   -0.000066  -0.000066   0.000158   0.000000   0.000000   0.000000
    35  N   -0.040821  -0.040824  -0.032515  -0.000000   0.000000   0.000000
    36  C    0.376938   0.376945   0.376142   0.000000  -0.000000  -0.000000
    37  H    0.524012  -0.040224  -0.024973  -0.000000   0.000000  -0.000000
    38  H   -0.040224   0.524009  -0.024981  -0.000000  -0.000000   0.000000
    39  H   -0.024973  -0.024981   0.468168  -0.000000   0.000000   0.000000
    40  C   -0.000000  -0.000000  -0.000000   5.060299   0.376946   0.376938
    41  H    0.000000  -0.000000   0.000000   0.376946   0.524006  -0.040224
    42  H   -0.000000   0.000000   0.000000   0.376938  -0.040224   0.524010
    43  H    0.000000   0.000000  -0.000021   0.376141  -0.024981  -0.024973
    44  Co   0.000674   0.000677   0.008625  -0.007485   0.000677   0.000674
              43         44
     1  C   -0.000013   0.256562
     2  C   -0.000007  -0.055493
     3  C    0.000000   0.006879
     4  C   -0.000000   0.002212
     5  C    0.000000   0.006879
     6  C    0.000001  -0.055494
     7  H    0.000000  -0.000635
     8  H    0.000000   0.000127
     9  H    0.000000  -0.000635
    10  C   -0.000000   0.006949
    11  C   -0.000002   0.362562
    12  C   -0.000000   0.005910
    13  C   -0.000000  -0.001254
    14  C    0.000000  -0.001312
    15  C   -0.000000   0.000163
    16  H    0.000000   0.000048
    17  C   -0.000000   0.000144
    18  H    0.000000   0.000025
    19  H   -0.000000   0.000011
    20  H    0.000000  -0.000010
    21  C    0.000010   0.006949
    22  C    0.000656   0.362561
    23  C    0.002683   0.005910
    24  C    0.000005  -0.001254
    25  C    0.000009  -0.001312
    26  C   -0.000000   0.000163
    27  H   -0.000000   0.000048
    28  C    0.000001   0.000144
    29  H   -0.000031   0.000025
    30  H   -0.000000   0.000011
    31  H   -0.000000  -0.000010
    32  N    0.000158  -0.071855
    33  N   -0.032516  -0.054064
    34  N   -0.000000  -0.071855
    35  N    0.000001  -0.054064
    36  C   -0.000000  -0.007485
    37  H    0.000000   0.000674
    38  H    0.000000   0.000677
    39  H   -0.000021   0.008625
    40  C    0.376141  -0.007485
    41  H   -0.024981   0.000677
    42  H   -0.024973   0.000674
    43  H    0.468171   0.008625
    44  Co   0.008625  16.492746
          Atomic-Atomic Spin Densities.
               1          2          3          4          5          6
     1  C   -0.000015   0.000000   0.000000   0.000000   0.000000   0.000000
     2  C    0.000000   0.000001  -0.000000  -0.000000  -0.000000   0.000000
     3  C    0.000000  -0.000000  -0.000001   0.000000   0.000000  -0.000000
     4  C    0.000000  -0.000000   0.000000  -0.000000   0.000000  -0.000000
     5  C    0.000000  -0.000000   0.000000   0.000000  -0.000001  -0.000000
     6  C    0.000000   0.000000  -0.000000  -0.000000  -0.000000   0.000001
     7  H   -0.000000   0.000000   0.000000   0.000000  -0.000000   0.000000
     8  H   -0.000000   0.000000  -0.000000  -0.000000  -0.000000   0.000000
     9  H   -0.000000   0.000000  -0.000000   0.000000   0.000000   0.000000
    10  C   -0.000000   0.000000   0.000000  -0.000000  -0.000000  -0.000000
    11  C    0.000000  -0.000000   0.000000  -0.000000   0.000000   0.000000
    12  C    0.000000   0.000000  -0.000000  -0.000000  -0.000000  -0.000000
    13  C   -0.000000  -0.000000   0.000000  -0.000000  -0.000000  -0.000000
    14  C   -0.000000  -0.000000   0.000000  -0.000000  -0.000000  -0.000000
    15  C   -0.000000  -0.000000   0.000000  -0.000000   0.000000   0.000000
    16  H   -0.000000   0.000000  -0.000000   0.000000  -0.000000   0.000000
    17  C    0.000000   0.000000  -0.000000  -0.000000  -0.000000   0.000000
    18  H    0.000000  -0.000000  -0.000000   0.000000   0.000000   0.000000
    19  H    0.000000   0.000000  -0.000000   0.000000  -0.000000  -0.000000
    20  H   -0.000000   0.000000   0.000000  -0.000000  -0.000000  -0.000000
    21  C   -0.000000  -0.000000  -0.000000  -0.000000   0.000000   0.000000
    22  C    0.000000   0.000000   0.000000  -0.000000   0.000000  -0.000000
    23  C    0.000000  -0.000000  -0.000000  -0.000000  -0.000000   0.000000
    24  C   -0.000000  -0.000000  -0.000000  -0.000000   0.000000  -0.000000
    25  C   -0.000000  -0.000000  -0.000000  -0.000000   0.000000  -0.000000
    26  C   -0.000000   0.000000   0.000000  -0.000000   0.000000  -0.000000
    27  H   -0.000000   0.000000  -0.000000   0.000000  -0.000000   0.000000
    28  C    0.000000   0.000000  -0.000000  -0.000000  -0.000000   0.000000
    29  H    0.000000   0.000000   0.000000   0.000000  -0.000000  -0.000000
    30  H    0.000000  -0.000000  -0.000000   0.000000  -0.000000   0.000000
    31  H   -0.000000  -0.000000  -0.000000  -0.000000   0.000000   0.000000
    32  N   -0.000000  -0.000000   0.000000   0.000000  -0.000000   0.000000
    33  N   -0.000000  -0.000000  -0.000000  -0.000000   0.000000   0.000000
    34  N   -0.000000   0.000000  -0.000000   0.000000   0.000000  -0.000000
    35  N   -0.000000   0.000000   0.000000  -0.000000  -0.000000  -0.000000
    36  C   -0.000000   0.000000   0.000000  -0.000000   0.000000  -0.000000
    37  H   -0.000000  -0.000000  -0.000000   0.000000  -0.000000  -0.000000
    38  H    0.000000  -0.000000   0.000000   0.000000   0.000000   0.000000
    39  H    0.000000   0.000000  -0.000000   0.000000   0.000000  -0.000000
    40  C   -0.000000  -0.000000   0.000000  -0.000000   0.000000   0.000000
    41  H    0.000000   0.000000   0.000000   0.000000   0.000000  -0.000000
    42  H    0.000000   0.000000   0.000000   0.000000   0.000000  -0.000000
    43  H    0.000000  -0.000000   0.000000   0.000000  -0.000000   0.000000
    44  Co   0.000003  -0.000000   0.000000   0.000000   0.000000  -0.000000
               7          8          9         10         11         12
     1  C   -0.000000  -0.000000  -0.000000  -0.000000   0.000000   0.000000
     2  C    0.000000   0.000000   0.000000   0.000000  -0.000000   0.000000
     3  C    0.000000  -0.000000  -0.000000   0.000000   0.000000  -0.000000
     4  C    0.000000  -0.000000   0.000000  -0.000000  -0.000000  -0.000000
     5  C   -0.000000  -0.000000   0.000000  -0.000000   0.000000  -0.000000
     6  C    0.000000   0.000000   0.000000  -0.000000   0.000000  -0.000000
     7  H   -0.000000   0.000000  -0.000000   0.000000  -0.000000   0.000000
     8  H    0.000000   0.000000   0.000000   0.000000  -0.000000   0.000000
     9  H   -0.000000   0.000000  -0.000000   0.000000  -0.000000   0.000000
    10  C    0.000000   0.000000   0.000000   0.000000  -0.000000   0.000000
    11  C   -0.000000  -0.000000  -0.000000  -0.000000  -0.000002  -0.000000
    12  C    0.000000   0.000000   0.000000   0.000000  -0.000000   0.000000
    13  C    0.000000  -0.000000   0.000000  -0.000000  -0.000000   0.000000
    14  C    0.000000   0.000000   0.000000   0.000000   0.000000   0.000000
    15  C   -0.000000  -0.000000  -0.000000   0.000000   0.000000  -0.000000
    16  H    0.000000   0.000000  -0.000000   0.000000  -0.000000   0.000000
    17  C    0.000000   0.000000   0.000000  -0.000000  -0.000000   0.000000
    18  H   -0.000000  -0.000000  -0.000000  -0.000000  -0.000000  -0.000000
    19  H    0.000000   0.000000   0.000000  -0.000000  -0.000000   0.000000
    20  H    0.000000   0.000000   0.000000   0.000000   0.000000  -0.000000
    21  C    0.000000   0.000000   0.000000   0.000000  -0.000000   0.000000
    22  C   -0.000000  -0.000000  -0.000000  -0.000000  -0.000000  -0.000000
    23  C    0.000000   0.000000   0.000000   0.000000  -0.000000  -0.000000
    24  C    0.000000  -0.000000   0.000000  -0.000000   0.000000  -0.000000
    25  C    0.000000   0.000000   0.000000  -0.000000   0.000000   0.000000
    26  C   -0.000000  -0.000000  -0.000000  -0.000000  -0.000000   0.000000
    27  H   -0.000000   0.000000   0.000000   0.000000  -0.000000   0.000000
    28  C    0.000000   0.000000   0.000000   0.000000  -0.000000   0.000000
    29  H   -0.000000  -0.000000  -0.000000   0.000000  -0.000000  -0.000000
    30  H    0.000000   0.000000   0.000000   0.000000   0.000000  -0.000000
    31  H    0.000000   0.000000   0.000000  -0.000000   0.000000   0.000000
    32  N   -0.000000   0.000000  -0.000000   0.000000  -0.000000  -0.000000
    33  N    0.000000   0.000000   0.000000  -0.000000   0.000000   0.000000
    34  N   -0.000000   0.000000  -0.000000   0.000000   0.000000  -0.000000
    35  N    0.000000   0.000000   0.000000  -0.000000   0.000001   0.000000
    36  C    0.000000  -0.000000  -0.000000  -0.000000   0.000000  -0.000000
    37  H    0.000000   0.000000   0.000000  -0.000000  -0.000000   0.000000
    38  H   -0.000000  -0.000000  -0.000000  -0.000000  -0.000000  -0.000000
    39  H   -0.000000   0.000000  -0.000000  -0.000000  -0.000000  -0.000000
    40  C   -0.000000  -0.000000   0.000000  -0.000000   0.000000   0.000000
    41  H   -0.000000  -0.000000  -0.000000   0.000000  -0.000000  -0.000000
    42  H   -0.000000  -0.000000  -0.000000   0.000000   0.000000  -0.000000
    43  H   -0.000000   0.000000  -0.000000   0.000000  -0.000000  -0.000000
    44  Co  -0.000000  -0.000000  -0.000000  -0.000000  -0.000002  -0.000000
              13         14         15         16         17         18
     1  C   -0.000000  -0.000000  -0.000000  -0.000000   0.000000   0.000000
     2  C   -0.000000  -0.000000  -0.000000   0.000000   0.000000  -0.000000
     3  C    0.000000   0.000000   0.000000  -0.000000  -0.000000  -0.000000
     4  C   -0.000000  -0.000000  -0.000000   0.000000  -0.000000   0.000000
     5  C   -0.000000  -0.000000   0.000000  -0.000000  -0.000000   0.000000
     6  C   -0.000000  -0.000000   0.000000   0.000000   0.000000   0.000000
     7  H    0.000000   0.000000  -0.000000   0.000000   0.000000  -0.000000
     8  H   -0.000000   0.000000  -0.000000   0.000000   0.000000  -0.000000
     9  H    0.000000   0.000000  -0.000000  -0.000000   0.000000  -0.000000
    10  C   -0.000000   0.000000   0.000000   0.000000  -0.000000  -0.000000
    11  C   -0.000000   0.000000   0.000000  -0.000000  -0.000000  -0.000000
    12  C    0.000000   0.000000  -0.000000   0.000000   0.000000  -0.000000
    13  C   -0.000000  -0.000000   0.000000   0.000000   0.000000   0.000000
    14  C   -0.000000  -0.000001   0.000000   0.000000   0.000000   0.000000
[...]
              Bcc     0.0000     0.000     0.000     0.000  0.3268  0.6726  0.6639
 
              Baa    -0.0000    -0.000    -0.000    -0.000 -0.4003 -0.2433  0.8835
    41 H(1)   Bbb    -0.0000    -0.000    -0.000    -0.000 -0.5700  0.8210 -0.0322
              Bcc     0.0000     0.000     0.000     0.000  0.7175  0.5165  0.4673
 
              Baa    -0.0000    -0.000    -0.000    -0.000  0.4331  0.3682  0.8227
    42 H(1)   Bbb    -0.0000    -0.000    -0.000    -0.000  0.7345 -0.6732 -0.0854
              Bcc     0.0000     0.000     0.000     0.000  0.5224  0.6413 -0.5620
 
              Baa    -0.0000    -0.000    -0.000    -0.000  0.8802 -0.4547 -0.1364
    43 H(1)   Bbb    -0.0000    -0.000    -0.000    -0.000  0.0055 -0.2777  0.9607
              Bcc     0.0000     0.000     0.000     0.000  0.4747  0.8463  0.2419
 
              Baa    -0.0004    -0.057    -0.020    -0.019  0.9977 -0.0050 -0.0683
    44 Co(59) Bbb     0.0002     0.019     0.007     0.006  0.0645  0.4030  0.9129
              Bcc     0.0003     0.037     0.013     0.012 -0.0230  0.9152 -0.4023
 

 ---------------------------------------------------------------------------------

   1 Symmetry operations used in ECPInt.
 ECPInt:  NShTT=   11781 NPrTT=   71406 LenC2=    9496 LenP2D=   31942.
 LDataN:  DoStor=T MaxTD1= 7 Len=  274
 Calling FoFJK, ICntrl=      2127 FMM=F ISym2X=0 I1Cent= 0 IOpClX= 1 NMat=1 NMatS=1 NMatT=0.
 -------------------------------------------------------------------
 Center     Atomic                   Forces (Hartrees/Bohr)
 Number     Number              X              Y              Z
 -------------------------------------------------------------------
      1        6          -0.000009808   -0.096170603    0.000001116
      2        6           0.071629448    0.042610534    0.000000776
      3        6          -0.006475777    0.003244761    0.000000097
      4        6           0.000010951    0.002055635    0.000000594
      5        6           0.006456374    0.003240478    0.000000083
      6        6          -0.071614429    0.042621086   -0.000000039
      7        1          -0.001025802    0.005003451   -0.000000023
      8        1          -0.000000810    0.000214808   -0.000001034
      9        1           0.001031655    0.005007133   -0.000000169
     10        6          -0.012762086   -0.008160464    0.000002731
     11        6           0.000884166    0.005274332   -0.000012331
     12        6           0.014015175    0.007257535    0.000000350
     13        6           0.012416167    0.005450495   -0.000000839
     14        6           0.000623787    0.004955723   -0.000000119
     15        6          -0.013371398    0.006676997    0.000000655
     16        1          -0.000463484   -0.000037423   -0.000000411
     17        6          -0.000341573   -0.011343540   -0.000000113
     18        1           0.000078289   -0.000299226   -0.000000129
     19        1           0.000088779    0.000333487   -0.000000385
     20        1          -0.000380565   -0.000293000    0.000000185
     21        6           0.012776057   -0.008237497    0.000002021
     22        6          -0.000880699    0.005276266   -0.000015266
     23        6          -0.013949660    0.007302159    0.000000299
     24        6          -0.012411918    0.005520731   -0.000000328
     25        6          -0.000663407    0.004903621   -0.000000596
     26        6           0.013343773    0.006602121   -0.000000096
     27        1           0.000457001   -0.000058398   -0.000000260
     28        6           0.000368617   -0.011269633   -0.000000020
     29        1          -0.000070332   -0.000281561   -0.000000585
     30        1          -0.000094877    0.000346892   -0.000000304
     31        1           0.000368366   -0.000298674    0.000000181
     32        7          -0.022520990   -0.061732842    0.000003403
     33        7           0.028235578    0.020565901    0.000010034
     34        7           0.022508362   -0.061745995    0.000001176
     35        7          -0.028259942    0.020566000    0.000007016
     36        6          -0.000201468   -0.009778160   -0.000002233
     37        1           0.000532638    0.002305898    0.000735304
     38        1           0.000532308    0.002306833   -0.000735755
     39        1           0.000339473    0.001752131    0.000001875
     40        6           0.000209047   -0.009779252   -0.000002260
     41        1          -0.000532674    0.002307117   -0.000735163
     42        1          -0.000533401    0.002306240    0.000734247
     43        1          -0.000342151    0.001752272    0.000002150
     44       27           0.000001239    0.061725630    0.000004165
 -------------------------------------------------------------------
 Cartesian Forces:  Max     0.096170603 RMS     0.017526578

 GradGradGradGradGradGradGradGradGradGradGradGradGradGradGradGradGradGrad
 Berny optimization.
 Search for a local minimum.
 Step number   1 out of a maximum of    2
 All quantities printed in internal units (Hartrees-Bohrs-Radians)
 Second derivative matrix not updated -- first step.
 ITU=  0
     Eigenvalues ---    0.00054   0.00055   0.00196   0.00240   0.00243
     Eigenvalues ---    0.00379   0.00437   0.00607   0.00644   0.00655
     Eigenvalues ---    0.00665   0.00811   0.00841   0.01316   0.01551
     Eigenvalues ---    0.01791   0.02014   0.02039   0.02538   0.02542
     Eigenvalues ---    0.03036   0.03087   0.04096   0.04196   0.04391
     Eigenvalues ---    0.04478   0.04665   0.05368   0.05520   0.06072
     Eigenvalues ---    0.06133   0.06893   0.06927   0.07033   0.07056
     Eigenvalues ---    0.07059   0.07253   0.07686   0.07755   0.09573
     Eigenvalues ---    0.09804   0.10065   0.10326   0.11452   0.11878
     Eigenvalues ---    0.11937   0.12061   0.12180   0.12798   0.13320
     Eigenvalues ---    0.13330   0.13403   0.13613   0.14680   0.15350
     Eigenvalues ---    0.15372   0.15856   0.19255   0.19707   0.19975
     Eigenvalues ---    0.20949   0.21868   0.23972   0.24333   0.28478
     Eigenvalues ---    0.29418   0.29446   0.30145   0.30601   0.31506
     Eigenvalues ---    0.31695   0.34612   0.35300   0.36285   0.37029
     Eigenvalues ---    0.37445   0.41046   0.41516   0.44237   0.46639
     Eigenvalues ---    0.48052   0.48281   0.49267   0.50836   0.51116
     Eigenvalues ---    0.53073   0.53494   0.53683   0.59756   0.62496
     Eigenvalues ---    0.68460   0.71264   0.72567   0.73659   0.86442
     Eigenvalues ---    0.90109   0.90656   0.91008   0.92622   0.94122
     Eigenvalues ---    0.94997   0.96683   0.99708   1.03847   1.12050
     Eigenvalues ---    1.15481   1.15641   1.18102   1.20460   1.23770
     Eigenvalues ---    1.30324   1.37687   1.37753   1.45225   1.46678
     Eigenvalues ---    1.49209   1.50388   1.52905   1.60145   1.63681
     Eigenvalues ---    1.65145   1.66217   1.77365   1.78499   1.83324
     Eigenvalues ---    1.86992
 Quadratic step=9.294D-01 exceeds max=3.000D-01 adjusted using Lamda=-7.359D-02.
 Angle between NR and scaled steps=  46.89 degrees.
 Angle between quadratic step and forces=  40.89 degrees.
 Linear search not attempted -- first point.
 B after Tr=     0.000001   -0.000008   -0.000000
         Rot=    1.000000   -0.000000   -0.000000   -0.000000 Ang=  -0.00 deg.
 Variable       Old X    -DE/DX   Delta X   Delta X   Delta X     New X
                                 (Linear)    (Quad)   (Total)
    X1        0.00001  -0.00001   0.00000  -0.00001  -0.00001   0.00000
    Y1        1.51729  -0.09617   0.00000  -0.16612  -0.16613   1.35116
    Z1        0.00016   0.00000   0.00000  -0.00000  -0.00000   0.00015
    X2       -2.43221   0.07163   0.00000   0.09036   0.09036  -2.34185
    Y2        2.56341   0.04261   0.00000  -0.02011  -0.02012   2.54329
    Z2        0.00007   0.00000   0.00000   0.00000   0.00000   0.00008
    X3       -2.35703  -0.00648   0.00000   0.02118   0.02118  -2.33585
    Y3        5.20442   0.00324   0.00000  -0.00189  -0.00189   5.20253
    Z3       -0.00001   0.00000   0.00000   0.00000   0.00001  -0.00001
    X4       -0.00000   0.00001   0.00000   0.00001   0.00001   0.00000
    Y4        6.42377   0.00206   0.00000   0.01948   0.01947   6.44323
    Z4       -0.00001   0.00000   0.00000   0.00000   0.00000  -0.00000
    X5        2.35705   0.00646   0.00000  -0.02119  -0.02119   2.33586
    Y5        5.20442   0.00324   0.00000  -0.00189  -0.00190   5.20253
    Z5        0.00006   0.00000   0.00000   0.00000   0.00000   0.00007
    X6        2.43220  -0.07161   0.00000  -0.09035  -0.09035   2.34185
    Y6        2.56341   0.04262   0.00000  -0.02011  -0.02012   2.54329
    Z6        0.00013  -0.00000   0.00000   0.00000   0.00000   0.00013
    X7       -4.07014  -0.00103   0.00000   0.01144   0.01144  -4.05870
    Y7        6.32318   0.00500   0.00000   0.00435   0.00434   6.32753
    Z7       -0.00009  -0.00000   0.00000   0.00000   0.00000  -0.00009
    X8        0.00001  -0.00000   0.00000   0.00000   0.00000   0.00001
    Y8        8.47682   0.00021   0.00000   0.01662   0.01661   8.49343
    Z8       -0.00003  -0.00000   0.00000  -0.00001  -0.00001  -0.00004
    X9        4.07014   0.00103   0.00000  -0.01144  -0.01144   4.05871
    Y9        6.32318   0.00501   0.00000   0.00436   0.00435   6.32753
    Z9        0.00006  -0.00000   0.00000  -0.00000   0.00000   0.00006
   X10        7.01019  -0.01276   0.00000  -0.03142  -0.03142   6.97877
   Y10        1.10245  -0.00816   0.00000  -0.01407  -0.01407   1.08838
   Z10       -0.00008   0.00000   0.00000   0.00001   0.00001  -0.00007
   X11        3.65850   0.00088   0.00000  -0.03704  -0.03704   3.62145
   Y11       -1.72705   0.00527   0.00000   0.00800   0.00799  -1.71906
   Z11        0.00027  -0.00001   0.00000  -0.00004  -0.00004   0.00023
   X12        7.95288   0.01402   0.00000  -0.01139  -0.01139   7.94149
   Y12       -1.40179   0.00726   0.00000   0.00793   0.00793  -1.39387
   Z12       -0.00019   0.00000   0.00000   0.00001   0.00001  -0.00018
   X13        8.63883   0.01242   0.00000  -0.01681  -0.01681   8.62202
   Y13        3.14194   0.00545   0.00000   0.00064   0.00064   3.14258
   Z13       -0.00014  -0.00000   0.00000   0.00000   0.00000  -0.00014
   X14       10.53801   0.00062   0.00000  -0.01268  -0.01268  10.52533
   Y14       -1.87969   0.00496   0.00000   0.00212   0.00211  -1.87758
   Z14       -0.00038  -0.00000   0.00000   0.00001   0.00001  -0.00037
   X15       11.25355  -0.01337   0.00000  -0.02998  -0.02998  11.22357
   Y15        2.65477   0.00668   0.00000   0.00105   0.00105   2.65581
   Z15       -0.00034   0.00000   0.00000   0.00000   0.00000  -0.00034
   X16        7.95229  -0.00046   0.00000  -0.01135  -0.01135   7.94093
   Y16        5.07038  -0.00004   0.00000   0.00175   0.00174   5.07213
   Z16       -0.00001  -0.00000   0.00000  -0.00000  -0.00000  -0.00001
   X17       12.17668  -0.00034   0.00000  -0.01602  -0.01602  12.16065
   Y17        0.20273  -0.01134   0.00000  -0.00940  -0.00940   0.19333
   Z17       -0.00047  -0.00000   0.00000   0.00000   0.00000  -0.00047
   X18       11.26346   0.00008   0.00000  -0.00906  -0.00906  11.25441
   Y18       -3.79780  -0.00030   0.00000   0.00153   0.00152  -3.79628
   Z18       -0.00043  -0.00000   0.00000   0.00000  -0.00000  -0.00043
   X19       12.55698   0.00009   0.00000  -0.02036  -0.02036  12.53662
   Y19        4.23790   0.00033   0.00000  -0.00185  -0.00186   4.23604
   Z19       -0.00037  -0.00000   0.00000  -0.00000  -0.00000  -0.00038
   X20       14.20442  -0.00038   0.00000  -0.01364  -0.01364  14.19078
   Y20       -0.11879  -0.00029   0.00000  -0.00527  -0.00527  -0.12406
   Z20       -0.00062   0.00000   0.00000   0.00000   0.00000  -0.00062
   X21       -7.01019   0.01278   0.00000   0.03143   0.03143  -6.97876
   Y21        1.10250  -0.00824   0.00000  -0.01411  -0.01412   1.08838
   Z21       -0.00010   0.00000   0.00000   0.00001   0.00001  -0.00009
   X22       -3.65849  -0.00088   0.00000   0.03705   0.03705  -3.62145
   Y22       -1.72706   0.00528   0.00000   0.00800   0.00799  -1.71907
   Z22        0.00021  -0.00002   0.00000  -0.00004  -0.00004   0.00017
   X23       -7.95291  -0.01395   0.00000   0.01144   0.01144  -7.94148
   Y23       -1.40184   0.00730   0.00000   0.00796   0.00795  -1.39389
   Z23       -0.00016   0.00000   0.00000   0.00001   0.00001  -0.00014
   X24       -8.63882  -0.01241   0.00000   0.01681   0.01681  -8.62201
   Y24        3.14188   0.00552   0.00000   0.00068   0.00067   3.14255
   Z24       -0.00013  -0.00000   0.00000   0.00000   0.00000  -0.00013
   X25      -10.53797  -0.00066   0.00000   0.01266   0.01266 -10.52531
   Y25       -1.87967   0.00490   0.00000   0.00209   0.00208  -1.87759
   Z25       -0.00021  -0.00000   0.00000   0.00000   0.00000  -0.00021
   X26      -11.25352   0.01334   0.00000   0.02996   0.02996 -11.22356
   Y26        2.65480   0.00660   0.00000   0.00101   0.00100   2.65580
   Z26       -0.00021  -0.00000   0.00000  -0.00000  -0.00000  -0.00021
   X27       -7.95228   0.00046   0.00000   0.01134   0.01134  -7.94094
   Y27        5.07039  -0.00006   0.00000   0.00173   0.00172   5.07211
   Z27       -0.00005  -0.00000   0.00000  -0.00000  -0.00000  -0.00006
   X28      -12.17669   0.00037   0.00000   0.01604   0.01604 -12.16065
   Y28        0.20266  -0.01127   0.00000  -0.00935  -0.00936   0.19330
   Z28       -0.00025  -0.00000   0.00000  -0.00000  -0.00000  -0.00025
   X29      -11.26346  -0.00007   0.00000   0.00906   0.00906 -11.25439
   Y29       -3.79783  -0.00028   0.00000   0.00155   0.00154  -3.79629
   Z29       -0.00018  -0.00000   0.00000  -0.00001  -0.00001  -0.00018
   X30      -12.55697  -0.00009   0.00000   0.02034   0.02034 -12.53663
   Y30        4.23786   0.00035   0.00000  -0.00184  -0.00185   4.23601
   Z30       -0.00021  -0.00000   0.00000  -0.00001  -0.00000  -0.00021
   X31      -14.20440   0.00037   0.00000   0.01363   0.01363 -14.19077
   Y31       -0.11881  -0.00030   0.00000  -0.00526  -0.00526  -0.12407
   Z31       -0.00029   0.00000   0.00000   0.00000   0.00000  -0.00029
   X32       -4.38127  -0.02252   0.00000   0.02780   0.02780  -4.35347
   Y32        0.88701  -0.06173   0.00000  -0.05812  -0.05812   0.82889
   Z32        0.00008   0.00000   0.00000   0.00000   0.00000   0.00008
   X33       -5.93732   0.02824   0.00000   0.05311   0.05311  -5.88421
   Y33       -3.03212   0.02057   0.00000   0.02806   0.02805  -3.00407
   Z33       -0.00007   0.00001   0.00000   0.00002   0.00002  -0.00005
   X34        4.38129   0.02251   0.00000  -0.02780  -0.02780   4.35349
   Y34        0.88703  -0.06175   0.00000  -0.05812  -0.05813   0.82890
   Z34        0.00017   0.00000   0.00000  -0.00000  -0.00000   0.00017
   X35        5.93735  -0.02826   0.00000  -0.05312  -0.05312   5.88423
   Y35       -3.03211   0.02057   0.00000   0.02806   0.02805  -3.00406
   Z35       -0.00003   0.00001   0.00000   0.00001   0.00001  -0.00002
   X36        6.09604  -0.00020   0.00000  -0.02019  -0.02019   6.07585
   Y36       -5.72976  -0.00978   0.00000   0.00975   0.00974  -5.72002
   Z36        0.00003  -0.00000   0.00000  -0.00000  -0.00000   0.00003
   X37        7.07228   0.00053   0.00000  -0.00337  -0.00336   7.06891
   Y37       -6.44135   0.00231   0.00000   0.02633   0.02632  -6.41504
   Z37       -1.68627   0.00074   0.00000   0.00332   0.00332  -1.68295
   X38        7.07128   0.00053   0.00000  -0.00336  -0.00336   7.06792
   Y38       -6.44144   0.00231   0.00000   0.02632   0.02632  -6.41512
   Z38        1.68688  -0.00074   0.00000  -0.00332  -0.00332   1.68356
   X39        4.17755   0.00034   0.00000  -0.01127  -0.01127   4.16628
   Y39       -6.49525   0.00175   0.00000   0.00082   0.00081  -6.49444
   Z39       -0.00060   0.00000   0.00000   0.00001   0.00001  -0.00059
   X40       -6.09603   0.00021   0.00000   0.02019   0.02019  -6.07583
   Y40       -5.72977  -0.00978   0.00000   0.00975   0.00974  -5.72003
   Z40        0.00009  -0.00000   0.00000   0.00000  -0.00000   0.00009
   X41       -7.07113  -0.00053   0.00000   0.00336   0.00336  -7.06777
   Y41       -6.44139   0.00231   0.00000   0.02632   0.02631  -6.41507
   Z41        1.68704  -0.00074   0.00000  -0.00332  -0.00332   1.68372
   X42       -7.07239  -0.00053   0.00000   0.00336   0.00337  -7.06903
   Y42       -6.44142   0.00231   0.00000   0.02633   0.02632  -6.41510
   Z42       -1.68610   0.00073   0.00000   0.00332   0.00332  -1.68278
   X43       -4.17753  -0.00034   0.00000   0.01127   0.01127  -4.16626
   Y43       -6.49526   0.00175   0.00000   0.00081   0.00080  -6.49446
   Z43       -0.00067   0.00000   0.00000   0.00001   0.00001  -0.00065
   X44        0.00000   0.00000   0.00000   0.00000   0.00000   0.00000
   Y44       -2.39177   0.06173   0.00000   0.11445   0.11444  -2.27733
   Z44        0.00027   0.00000   0.00000  -0.00002  -0.00002   0.00025
         Item               Value     Threshold  Converged?
 Maximum Force            0.096171     0.000450     NO 
 RMS     Force            0.017527     0.000300     NO 
 Maximum Displacement     0.166126     0.001800     NO 
 RMS     Displacement     0.026118     0.001200     NO 
 Predicted change in Energy=-2.615350D-02
 GradGradGradGradGradGradGradGradGradGradGradGradGradGradGradGradGradGrad

 Unable to Open any file for archive entry.
 1\1\GINC-X11P1N5\Force\UPBE1PBE\GenECP\C22H17Co1N4\MAYUMIAO\17-Jul-202
 4\0\\# pbe1pbe em=gd3bj genecp g09default scf=(xqc,maxcycle=64) force 
 guess=read nosymm\\Title Card\\0,1\C,0.00000603,0.80291371,0.00008228\
 C,-1.28706788,1.35649878,0.0000396\C,-1.24728542,2.75405991,-0.0000076
 2\C,-0.00000224,3.39931004,-0.0000037\C,1.24729754,2.75406252,0.000032
 12\C,1.28706549,1.35649563,0.00007013\H,-2.15382348,3.34608367,-0.0000
 4795\H,0.0000029,4.48573989,-0.00001418\H,2.15382629,3.34608095,0.0000
 3033\C,3.70963174,0.5833916,-0.0000416\C,1.93599291,-0.91391639,0.0001
 4078\C,4.20848024,-0.74179645,-0.00009955\C,4.57146953,1.66264361,-0.0
 0007523\C,5.57647663,-0.99468931,-0.00020076\C,5.95512157,1.4048423,-0
 .00017975\H,4.20816908,2.68313137,-0.00000553\C,6.44362036,0.10728094,
 -0.00024757\H,5.96036869,-2.00971076,-0.00022856\H,6.64486631,2.242597
 56,-0.00019784\H,7.516655,-0.06285907,-0.00032708\C,-3.7096326,0.58341
 616,-0.00005285\C,-1.93599199,-0.91391899,0.00011195\C,-4.20850123,-0.
 74181981,-0.00008237\C,-4.57146911,1.66261006,-0.00006845\C,-5.5764557
 ,-0.99467835,-0.00010929\C,-5.95510801,1.40486119,-0.00010913\H,-4.208
 16596,2.68313301,-0.00002863\C,-6.44362711,0.10724251,-0.00013023\H,-5
 .96036404,-2.00972656,-0.00009375\H,-6.64486131,2.24258085,-0.00011111
 \H,-7.51664563,-0.06286897,-0.00015224\N,-2.31846966,0.46938635,0.0000
 4277\N,-3.1418925,-1.60452902,-0.00003812\N,2.31847808,0.46939392,0.00
 00926\N,3.14190844,-1.60452495,-0.00001351\C,3.22588447,-3.03205762,0.
 00001525\H,3.74248804,-3.4086178,-0.89233337\H,3.74195931,-3.40866068,
 0.89265633\H,2.21066313,-3.43713778,-0.0003162\C,-3.22587908,-3.032062
 27,0.00004981\H,-3.74188028,-3.40863638,0.89274444\H,-3.74255024,-3.40
 865409,-0.89224353\H,-2.21065359,-3.43714376,-0.00035255\Co,0.00000056
 ,-1.26567018,0.0001435\\Version=ES64L-G16RevC.01\HF=-1212.1118608\S2=0
 .\S2-1=0.\S2A=0.\RMSD=4.754e-09\RMSF=1.753e-02\Dipole=-0.0000827,-1.42
 74388,-0.0000852\Quadrupole=14.008139,7.0204988,-21.0286378,-0.0001657
 ,-0.0004291,0.0001785\PG=C01 [X(C22H17Co1N4)]\\@
 The archive entry for this job was punched.



 IN THIS SHORT LIFE

 THAT ONLY LASTS AN HOUR

 HOW MUCH, HOW LITTLE, IS WITHIN OUR POWER....


 EMILY DICKINSON BOLTS OF MELODY NO. 521
 Job cpu time:       0 days  0 hours 23 minutes 18.9 seconds.
 Elapsed time:       0 days  0 hours  0 minutes 25.6 seconds.
 File lengths (MBytes):  RWF=    184 Int=      0 D2E=      0 Chk=    162 Scr=      1
 Normal termination of Gaussian 16 at Wed Jul 17 21:29:24 2024.
