 Entering Gaussian System, Link 0=g16
 Input=JOBS/37_B.gjf
 Output=JOBS/37_B.log
 Initial command:
 /data/app/gaussian/C01-avx2//g16/l1.exe "/tmp/Gau-2100787.inp" -scrdir="/tmp/"
 Entering Link 1 = /data/app/gaussian/C01-avx2//g16/l1.exe PID=   2100788.
  
 Copyright (c) 1988-2019, Gaussian, Inc.  All Rights Reserved.
  
 This is part of the Gaussian(R) 16 program.  It is based on
 the Gaussian(R) 09 system (copyright 2009, Gaussian, Inc.),
 the Gaussian(R) 03 system (copyright 2003, Gaussian, Inc.),
 the Gaussian(R) 98 system (copyright 1998, Gaussian, Inc.),
 the Gaussian(R) 94 system (copyright 1995, Gaussian, Inc.),
 the Gaussian 92(TM) system (copyright 1992, Gaussian, Inc.),
 the Gaussian 90(TM) system (copyright 1990, Gaussian, Inc.),
 the Gaussian 88(TM) system (copyright 1988, Gaussian, Inc.),
 the Gaussian 86(TM) system (copyright 1986, Carnegie Mellon
 University), and the Gaussian 82(TM) system (copyright 1983,
 Carnegie Mellon University). Gaussian is a federally registered
 trademark of Gaussian, Inc.
  
 This software contains proprietary and confidential information,
 including trade secrets, belonging to Gaussian, Inc.
  
 This software is provided under written license and may be
 used, copied, transmitted, or stored only in accord with that
 written license.
  
 The following legend is applicable only to US Government
 contracts under FAR:
  
                    RESTRICTED RIGHTS LEGEND
  
 Use, reproduction and disclosure by the US Government is
 subject to restrictions as set forth in subparagraphs (a)
 and (c) of the Commercial Computer Software - Restricted
 Rights clause in FAR 52.227-19.
  
 Gaussian, Inc.
 340 Quinnipiac St., Bldg. 40, Wallingford CT 06492
  
  
 ---------------------------------------------------------------
 Warning -- This program may not be used in any manner that
 competes with the business of Gaussian, Inc. or will provide
 assistance to any competitor of Gaussian, Inc.  The licensee
 of this program is prohibited from giving any competitor of
 Gaussian, Inc. access to this program.  By using this program,
 the user acknowledges that Gaussian, Inc. is engaged in the
 business of creating and licensing software in the field of
 computational chemistry and represents and warrants to the
 licensee that it is not a competitor of Gaussian, Inc. and that
 it will not use this program in any manner prohibited above.
 ---------------------------------------------------------------
  

 Cite this work as:
 Gaussian 16, Revision C.01,
 M. J. Frisch, G. W. Trucks, H. B. Schlegel, G. E. Scuseria, 
 M. A. Robb, J. R. Cheeseman, G. Scalmani, V. Barone, 
 G. A. Petersson, H. Nakatsuji, X. Li, M. Caricato, A. V. Marenich, 
 J. Bloino, B. G. Janesko, R. Gomperts, B. Mennucci, H. P. Hratchian, 
 J. V. Ortiz, A. F. Izmaylov, J. L. Sonnenberg, D. Williams-Young, 
 F. Ding, F. Lipparini, F. Egidi, J. Goings, B. Peng, A. Petrone, 
 T. Henderson, D. Ranasinghe, V. G. Zakrzewski, J. Gao, N. Rega, 
 G. Zheng, W. Liang, M. Hada, M. Ehara, K. Toyota, R. Fukuda, 
 J. Hasegawa, M. Ishida, T. Nakajima, Y. Honda, O. Kitao, H. Nakai, 
 T. Vreven, K. Throssell, J. A. Montgomery, Jr., J. E. Peralta, 
 F. Ogliaro, M. J. Bearpark, J. J. Heyd, E. N. Brothers, K. N. Kudin, 
 V. N. Staroverov, T. A. Keith, R. Kobayashi, J. Normand, 
 K. Raghavachari, A. P. Rendell, J. C. Burant, S. S. Iyengar, 
 J. Tomasi, M. Cossi, J. M. Millam, M. Klene, C. Adamo, R. Cammi, 
 J. W. Ochterski, R. L. Martin, K. Morokuma, O. Farkas, 
 J. B. Foresman, and D. J. Fox, Gaussian, Inc., Wallingford CT, 2019.
 
 ******************************************
 Gaussian 16:  ES64L-G16RevC.01  3-Jul-2019
                17-Jul-2024 
 ******************************************
 %chk=b.chk
 %nprocshared=56
 Will use up to   56 processors via shared memory.
 %mem=96gb
 ----------------------------------------------------------------------
 # pbe1pbe em=gd3bj genecp g09default scf=(xqc,maxcycle=64) force guess
 =read nosymm
 ----------------------------------------------------------------------
 1/10=7,30=1,38=1,158=3,167=1/1,3;
 2/12=2,15=1,17=6,18=5,40=1/2;
 3/5=7,11=2,16=1,17=8,25=1,27=10,30=1,71=1,74=-13,75=-4,116=-2,124=41,158=3/1,2,3;
 4/5=1,60=-1/1;
 5/5=2,7=64,8=3,13=1,38=6,87=10/2,8;
 6/7=2,8=2,9=2,10=2,28=1,87=10/1;
 7/29=1,30=1,87=10/1,2,3,16;
 1/10=7,30=1,158=3,167=1/3;
 99//99;
 Using 2006 physical constants.
 ----------
 Title Card
 ----------
 Symbolic Z-matrix:
 Charge =  0 Multiplicity = 3
 6                     0.00001   0.80291   0.00008 
 6                    -1.28707   1.3565    0.00004 
 6                    -1.24729   2.75406  -0.00001 
 6                    0.         3.39931  0. 
 6                     1.2473    2.75406   0.00003 
 6                     1.28707   1.3565    0.00007 
 1                    -2.15382   3.34608  -0.00005 
 1                     0.        4.48574  -0.00001 
 1                     2.15383   3.34608   0.00003 
 6                     3.70963   0.58339  -0.00004 
 6                     1.93599  -0.91392   0.00014 
 6                     4.20848  -0.7418   -0.0001 
 6                     4.57147   1.66264  -0.00008 
 6                     5.57648  -0.99469  -0.0002 
 6                     5.95512   1.40484  -0.00018 
 1                     4.20817   2.68313  -0.00001 
 6                     6.44362   0.10728  -0.00025 
 1                     5.96037  -2.00971  -0.00023 
 1                     6.64487   2.2426   -0.0002 
 1                     7.51666  -0.06286  -0.00033 
 6                    -3.70963   0.58342  -0.00005 
 6                    -1.93599  -0.91392   0.00011 
 6                    -4.2085   -0.74182  -0.00008 
 6                    -4.57147   1.66261  -0.00007 
 6                    -5.57646  -0.99468  -0.00011 
 6                    -5.95511   1.40486  -0.00011 
 1                    -4.20817   2.68313  -0.00003 
 6                    -6.44363   0.10724  -0.00013 
 1                    -5.96036  -2.00973  -0.00009 
 1                    -6.64486   2.24258  -0.00011 
 1                    -7.51665  -0.06287  -0.00015 
 7                    -2.31847   0.46939   0.00004 
 7                    -3.14189  -1.60453  -0.00004 
 7                     2.31848   0.46939   0.00009 
 7                     3.14191  -1.60452  -0.00001 
 6                     3.22588  -3.03206   0.00002 
 1                     3.74249  -3.40862  -0.89233 
 1                     3.74196  -3.40866   0.89266 
 1                     2.21066  -3.43714  -0.00032 
 6                    -3.22588  -3.03206   0.00005 
 1                    -3.74188  -3.40864   0.89274 
 1                    -3.74255  -3.40865  -0.89224 
 1                    -2.21065  -3.43714  -0.00035 
 27                    0.       -1.26567   0.00014 
 

 GradGradGradGradGradGradGradGradGradGradGradGradGradGradGradGradGradGrad
 Berny optimization.
 Initialization pass.
 Trust Radius=3.00D-01 FncErr=1.00D-07 GrdErr=1.00D-07 EigMax=2.50D+02 EigMin=1.00D-04
 Number of steps in this run=      2 maximum allowed number of steps=      2.
 GradGradGradGradGradGradGradGradGradGradGradGradGradGradGradGradGradGrad

                          Input orientation:                          
 ---------------------------------------------------------------------
 Center     Atomic      Atomic             Coordinates (Angstroms)
 Number     Number       Type             X           Y           Z
 ---------------------------------------------------------------------
      1          6           0        0.000006    0.802914    0.000082
      2          6           0       -1.287068    1.356499    0.000040
      3          6           0       -1.247285    2.754060   -0.000008
      4          6           0       -0.000002    3.399310   -0.000004
      5          6           0        1.247298    2.754063    0.000032
      6          6           0        1.287065    1.356496    0.000070
      7          1           0       -2.153823    3.346084   -0.000048
      8          1           0        0.000003    4.485740   -0.000014
      9          1           0        2.153826    3.346081    0.000030
     10          6           0        3.709632    0.583392   -0.000042
     11          6           0        1.935993   -0.913916    0.000141
     12          6           0        4.208480   -0.741796   -0.000100
     13          6           0        4.571470    1.662644   -0.000075
     14          6           0        5.576477   -0.994689   -0.000201
     15          6           0        5.955122    1.404842   -0.000180
     16          1           0        4.208169    2.683131   -0.000006
     17          6           0        6.443620    0.107281   -0.000248
     18          1           0        5.960369   -2.009711   -0.000229
     19          1           0        6.644866    2.242598   -0.000198
     20          1           0        7.516655   -0.062859   -0.000327
     21          6           0       -3.709633    0.583416   -0.000053
     22          6           0       -1.935992   -0.913919    0.000112
     23          6           0       -4.208501   -0.741820   -0.000082
     24          6           0       -4.571469    1.662610   -0.000068
     25          6           0       -5.576456   -0.994678   -0.000109
     26          6           0       -5.955108    1.404861   -0.000109
     27          1           0       -4.208166    2.683133   -0.000029
     28          6           0       -6.443627    0.107243   -0.000130
     29          1           0       -5.960364   -2.009727   -0.000094
     30          1           0       -6.644861    2.242581   -0.000111
     31          1           0       -7.516646   -0.062869   -0.000152
     32          7           0       -2.318470    0.469386    0.000043
     33          7           0       -3.141892   -1.604529   -0.000038
     34          7           0        2.318478    0.469394    0.000093
     35          7           0        3.141908   -1.604525   -0.000014
     36          6           0        3.225884   -3.032058    0.000015
     37          1           0        3.742488   -3.408618   -0.892333
     38          1           0        3.741959   -3.408661    0.892656
     39          1           0        2.210663   -3.437138   -0.000316
     40          6           0       -3.225879   -3.032062    0.000050
     41          1           0       -3.741880   -3.408636    0.892744
     42          1           0       -3.742550   -3.408654   -0.892244
     43          1           0       -2.210654   -3.437144   -0.000353
     44         27           0        0.000001   -1.265670    0.000144
 ---------------------------------------------------------------------
                    Distance matrix (angstroms):
                    1          2          3          4          5
     1  C    0.000000
     2  C    1.401077   0.000000
     3  C    2.315752   1.398127   0.000000
     4  C    2.596396   2.414460   1.404302   0.000000
     5  C    2.315754   2.894165   2.494583   1.404315   0.000000
     6  C    1.401062   2.574133   2.894153   2.414464   1.398133
     7  H    3.332671   2.170187   1.082730   2.154479   3.452262
     8  H    3.682826   3.383593   2.134114   1.086430   2.134116
     9  H    3.332663   3.974694   3.452253   2.154486   1.082719
    10  C    3.716115   5.056155   5.411361   4.657336   3.282515
    11  C    2.587576   3.942449   4.856677   4.727790   3.732073
    12  C    4.483011   5.882507   6.479691   5.904243   4.581444
    13  C    4.651603   5.866531   5.920228   4.890232   3.498759
    14  C    5.859044   7.255090   7.785682   7.099602   5.726686
    15  C    5.985459   7.242351   7.327691   6.280239   4.897346
    16  H    4.609106   5.653104   5.455916   4.268679   2.961721
    17  C    6.481055   7.830970   8.133601   7.235864   5.831571
    18  H    6.590659   7.991039   8.639664   8.048822   6.701237
    19  H    6.799034   7.981275   7.908707   6.744795   5.421747
    20  H    7.566345   8.917405   9.205525   8.275672   6.873128
    21  C    3.716127   2.542927   3.282506   4.657319   5.411364
    22  C    2.587586   2.361334   3.732075   4.727790   4.856688
    23  C    4.483050   3.596903   4.581482   5.904271   6.479733
    24  C    4.651609   3.298635   3.498780   4.890239   5.920246
    25  C    5.859033   4.891511   5.726670   7.099575   7.785671
    26  C    5.985459   4.668291   4.897339   6.280216   7.327687
    27  H    4.609114   3.208235   2.961730   4.268671   5.455925
    28  C    6.481078   5.305728   5.831604   7.235884   8.133633
    29  H    6.590672   5.759442   6.701251   8.048825   8.639680
    30  H    6.799037   5.430570   5.421756   6.744789   7.908716
    31  H    7.566349   6.389229   6.873134   8.275664   9.205531
    32  N    2.342343   1.360426   2.523325   3.736274   4.234907
    33  N    3.958195   3.494003   4.752561   5.908458   6.185654
    34  N    2.342338   3.713074   4.234899   3.736276   2.523319
    35  N    3.958196   5.327616   6.185652   5.908466   4.752561
    36  C    5.011317   6.294932   7.313577   7.195056   6.115063
    37  H    5.704347   6.985635   7.979516   7.819870   6.708273
    38  H    5.704057   6.985315   7.979257   7.819692   6.708150
    39  H    4.781740   5.934060   7.091427   7.184989   6.265703
    40  C    5.011325   4.797755   6.115067   7.195056   7.313587
    41  H    5.704009   5.434109   6.708117   7.819641   7.979203
    42  H    5.704408   5.434358   6.708314   7.819919   7.979587
    43  H    4.781747   4.881805   6.265707   7.184990   7.091436
    44  Co   2.068584   2.921013   4.208795   4.664980   4.208800
                    6          7          8          9         10
     6  C    0.000000
     7  H    3.974692   0.000000
     8  H    3.383593   2.436757   0.000000
     9  H    2.170190   4.307650   2.436756   0.000000
    10  C    2.542935   6.481711   5.384205   3.170644   0.000000
    11  C    2.361330   5.905438   5.736231   4.265563   2.321148
    12  C    3.596873   7.562385   6.711067   4.575188   1.415971
    13  C    3.298642   6.932787   5.372912   2.946007   1.381141
    14  C    4.891535   8.865656   7.818706   5.527823   2.444473
    15  C    4.668306   8.338070   6.704876   4.268285   2.391026
    16  H    3.208241   6.396441   4.577997   2.158663   2.158112
    17  C    5.305713   9.187267   7.790450   5.375143   2.775135
    18  H    5.759436   9.722379   8.815715   6.570713   3.433656
    19  H    5.430581   8.867617   7.013266   4.624621   3.371730
    20  H    6.389237  10.253733   8.785773   6.354589   3.861485
    21  C    5.056149   3.170627   5.384192   6.481702   7.419264
    22  C    3.942446   4.265568   5.736235   5.905439   5.840805
    23  C    5.882532   4.575222   6.711102   7.562417   8.028264
    24  C    5.866527   2.946030   5.372934   6.932797   8.351128
    25  C    7.255063   5.527805   7.818688   8.865633   9.419221
    26  C    7.242335   4.268268   6.704861   8.338054   9.699588
    27  H    5.653100   2.158663   4.577999   6.396440   8.191485
    28  C    7.830980   5.375175   7.790482   9.187289  10.164418
    29  H    7.991038   6.570727   8.815728   9.722384  10.011647
    30  H    7.981266   4.624623   7.013272   8.867616  10.486584
    31  H    8.917395   6.354590   8.785775  10.253729  11.244864
    32  N    3.713064   2.881405   4.637500   5.317594   6.029179
    33  N    5.327601   5.048252   6.852947   7.249357   7.192384
    34  N    1.360427   5.317596   4.637495   2.881395   1.395817
    35  N    3.494007   7.249366   6.852948   5.048248   2.260374
    36  C    4.797751   8.343977   8.180684   6.467609   3.647668
    37  H    5.434316   9.010475   8.781988   6.996150   4.090648
    38  H    5.434145   9.010202   8.781837   6.996105   4.090775
    39  H    4.881798   8.066030   8.225510   6.783457   4.290870
    40  C    6.294927   6.467615   8.180688   8.343976   7.821305
    41  H    6.985245   6.996088   8.781793   9.010133   8.500493
    42  H    6.985693   6.996181   8.782040   9.010541   8.501028
    43  H    5.934056   6.783465   8.225514   8.066029   7.156429
    44  Co   2.921008   5.089915   5.751410   5.089913   4.144924
                   11         12         13         14         15
    11  C    0.000000
    12  C    2.278996   0.000000
    13  C    3.685702   2.431685   0.000000
    14  C    3.641380   1.391175   2.841031   0.000000
    15  C    4.640047   2.767456   1.407464   2.429223   0.000000
    16  H    4.254590   3.424928   1.083228   3.924109   2.164686
    17  C    4.621856   2.390980   2.433948   1.402240   1.386469
    18  H    4.170895   2.162573   3.926223   1.085192   3.414557
    19  H    5.668957   3.852608   2.152980   3.409030   1.085164
    20  H    5.645183   3.377125   3.413426   2.152347   2.143020
    21  C    5.840813   8.028244   8.351131   9.419248   9.699599
    22  C    3.871985   6.146883   6.998981   7.512903   8.224739
    23  C    6.146904   8.416981   9.103259   9.788245  10.387848
    24  C    6.998968   9.103224   9.142939  10.490093  10.529746
    25  C    7.512883   9.788203  10.490078  11.152932  11.778581
    26  C    8.224731  10.387813  10.529733  11.778594  11.910230
    27  H    7.119653   9.086808   8.838744  10.453019  10.243361
    28  C    8.441611  10.685891  11.124371  12.070507  12.466464
    29  H    7.972029  10.247587  11.153736  11.581407  12.395083
    30  H    9.143005  11.256177  11.231314  12.642825  12.627802
    31  H    9.490872  11.744766  12.210648  13.126239  13.551483
    32  N    4.473698   6.638376   6.992505   8.029551   8.326307
    33  N    5.124633   7.400830   8.376776   8.739672   9.581857
    34  N    1.435215   2.244792   2.549474   3.571847   3.755029
    35  N    1.389666   1.371815   3.566235   2.509785   4.119522
    36  C    2.479988   2.492146   4.883730   3.110652   5.209109
    37  H    3.206785   2.850468   5.215460   3.160137   5.372251
    38  H    3.206532   2.850758   5.215667   3.160681   5.372621
    39  H    2.538127   3.355017   5.619713   4.158636   6.120926
    40  C    5.579558   7.779140   9.101588   9.035063  10.196906
    41  H    6.265669   8.433116   9.778895   9.667278  10.862722
    42  H    6.266252   8.433679   9.779415   9.667845  10.863258
    43  H    4.854004   6.962053   8.485577   8.161187   9.493404
    44  Co   1.967688   4.240960   5.428936   5.583056   6.526492
                   16         17         18         19         20
    16  H    0.000000
    17  C    3.410608   0.000000
    18  H    5.009288   2.171448   0.000000
    19  H    2.476199   2.144779   4.307048   0.000000
    20  H    4.299598   1.086440   2.492440   2.464781   0.000000
    21  C    8.191483  10.164411  10.011655  10.486588  11.244875
    22  C    7.119655   8.441608   7.972031   9.143015   9.490882
    23  C    9.086838  10.685910  10.247608  11.256213  11.744798
    24  C    8.838751  11.124354  11.153723  11.231321  12.210651
    25  C   10.452998  12.070482  11.581391  12.642811  13.126227
    26  C   10.243348  12.466442  12.395075  12.627793  13.551480
    27  H    8.416335  10.958812  11.199191  10.861969  12.042089
    28  C   10.958830  12.887247  12.583346  13.261538  13.961318
    29  H   11.199196  12.583344  11.920733  13.303161  13.616914
    30  H   10.861968  13.261518  13.303150  13.289728  14.347948
    31  H   12.042084  13.961303  13.616905  14.347947  15.033301
    32  N    6.891856   8.769569   8.642053   9.137049   9.849516
    33  N    8.509256   9.737163   9.111275  10.515752  10.769465
    34  N    2.910595   4.141005   4.405602   4.675670   5.225355
    35  N    4.418247   3.719083   2.847436   5.202986   4.638442
    36  C    5.798989   4.495472   2.919349   6.285811   5.217936
    37  H    6.174343   4.522552   2.769799   6.415290   5.121925
    38  H    6.174474   4.523063   2.770495   6.415667   5.122513
    39  H    6.437991   5.520945   4.012211   7.205661   6.288029
    40  C    9.377020  10.166351   9.242962  11.191678  11.145322
    41  H   10.055343  10.812194   9.843172  11.858259  11.779067
    42  H   10.055838  10.812748   9.843748  11.858786  11.779625
    43  H    8.868994   9.351973   8.294768  10.520442  10.295938
    44  Co   5.770764   6.588265   6.006628   7.514132   7.612283
                   21         22         23         24         25
    21  C    0.000000
    22  C    2.321166   0.000000
    23  C    1.416023   2.279017   0.000000
    24  C    1.381094   3.685681   2.431672   0.000000
    25  C    2.444465   3.641359   1.391128   2.840982   0.000000
    26  C    2.391011   4.640047   2.767467   1.407441   2.429232
    27  H    2.158089   4.254593   3.424953   1.083262   3.924094
    28  C    2.775152   4.621855   2.390961   2.433956   1.402218
    29  H    3.433683   4.170895   2.162547   3.926205   1.085223
    30  H    3.371705   5.668945   3.852596   2.152980   3.409008
    31  H    3.861481   5.645173   3.377098   3.413406   2.152349
    32  N    1.395828   1.435208   2.244825   2.549468   3.571828
    33  N    2.260405   1.389654   1.371831   3.566215   2.509784
    34  N    6.029189   4.473709   6.638411   6.992506   8.029538
    35  N    7.192406   5.124647   7.400864   8.376775   8.739667
    36  C    7.821320   5.579559   7.779157   9.101573   9.035049
    37  H    8.500977   6.266188   8.433632   9.779334   9.667775
    38  H    8.500578   6.265740   8.433199   9.778949   9.667326
    39  H    7.156449   4.854007   6.962069   8.485561   8.161178
    40  C    3.647698   2.479988   2.492139   4.883704   3.110650
    41  H    4.090796   3.206500   2.850752   5.215637   3.160704
    42  H    4.090686   3.206814   2.850450   5.215439   3.160125
    43  H    4.290902   2.538130   3.355021   5.619692   4.158637
    44  Co   4.144936   1.967688   4.240979   5.428919   5.583037
                   26         27         28         29         30
    26  C    0.000000
    27  H    2.164667   0.000000
    28  C    1.386530   3.410645   0.000000
    29  H    3.414592   5.009304   2.171428   0.000000
    30  H    1.085142   2.476201   2.144800   4.307047   0.000000
    31  H    2.143043   4.299601   1.086419   2.492442   2.464773
    32  N    3.755030   2.910606   4.141023   4.405610   4.675669
    33  N    4.119540   4.418256   3.719088   2.847449   5.202984
    34  N    8.326303   6.891859   8.769586   8.642064   9.137048
    35  N    9.581864   8.509266   9.737178   9.111287  10.515754
    36  C   10.196905   9.377020  10.166349   9.242961  11.191668
    37  H   10.863195  10.055771  10.812689   9.843695  11.858715
    38  H   10.862787  10.055413  10.812253   9.843226  11.858314
    39  H    9.493407   8.868996   9.351972   8.294769  10.520433
    40  C    5.209125   5.798995   4.495457   2.919346   6.285801
    41  H    5.372646   6.174473   4.523059   2.770520   6.415664
    42  H    5.372266   6.174360   4.522523   2.769770   6.415276
    43  H    6.120944   6.438000   5.520936   4.012212   7.205655
    44  Co   6.526489   5.770764   6.588264   6.006627   7.514121
                   31         32         33         34         35
    31  H    0.000000
    32  N    5.225354   0.000000
    33  N    4.638446   2.231401   0.000000
    34  N    9.849516   4.636948   5.840959   0.000000
    35  N   10.769470   5.840962   6.283801   2.231407   0.000000
    36  C   11.145314   6.557436   6.525827   3.617119   1.430001
    37  H   11.779563   7.250549   7.172560   4.226488   2.100400
    38  H   11.779118   7.250159   7.172113   4.226379   2.100435
    39  H   10.295932   5.981135   5.657588   3.908019   2.055648
    40  C    5.217929   3.617117   1.430002   6.557446   6.525839
    41  H    5.122526   4.226355   2.100440   7.250096   7.172056
    42  H    5.121904   4.226509   2.100402   7.250626   7.172637
    43  H    6.288027   3.908018   2.055647   5.981143   5.657598
    44  Co   7.612273   2.895812   3.160114   2.895822   3.160128
                   36         37         38         39         40
    36  C    0.000000
    37  H    1.097708   0.000000
    38  H    1.097712   1.784990   0.000000
    39  H    1.093053   1.772850   1.772873   0.000000
    40  C    6.451764   7.035359   7.034866   5.451612   0.000000
    41  H    7.034808   7.694301   7.483840   6.019231   1.097711
    42  H    7.035413   7.485038   7.694397   6.019726   1.097706
    43  H    5.451609   6.019663   6.019292   4.421317   1.093057
    44  Co   3.677832   4.403970   4.403549   3.098758   3.677831
                   41         42         43         44
    41  H    0.000000
    42  H    1.784988   0.000000
    43  H    1.772876   1.772848   0.000000
    44  Co   4.403489   4.404023   3.098756   0.000000
 Symmetry turned off by external request.
 Stoichiometry    C22H17CoN4(3)
 Framework group  C1[X(C22H17CoN4)]
 Deg. of freedom   126
 Full point group                 C1      NOp   1
 Rotational constants (GHZ):           0.4617651           0.0994116           0.0818861
 General basis read from cards:  (5D, 7F)
 ======================================================================================================
                                       Pseudopotential Parameters
 ======================================================================================================
  Center     Atomic      Valence      Angular      Power
  Number     Number     Electrons     Momentum     of R      Exponent        Coefficient   SO-Coeffient
 ======================================================================================================
    1          6
                                   No pseudopotential on this center.
    2          6
                                   No pseudopotential on this center.
    3          6
                                   No pseudopotential on this center.
    4          6
                                   No pseudopotential on this center.
    5          6
                                   No pseudopotential on this center.
    6          6
                                   No pseudopotential on this center.
    7          1
                                   No pseudopotential on this center.
    8          1
                                   No pseudopotential on this center.
    9          1
                                   No pseudopotential on this center.
   10          6
                                   No pseudopotential on this center.
   11          6
                                   No pseudopotential on this center.
   12          6
                                   No pseudopotential on this center.
   13          6
                                   No pseudopotential on this center.
   14          6
                                   No pseudopotential on this center.
   15          6
                                   No pseudopotential on this center.
   16          1
                                   No pseudopotential on this center.
   17          6
                                   No pseudopotential on this center.
   18          1
                                   No pseudopotential on this center.
   19          1
                                   No pseudopotential on this center.
   20          1
                                   No pseudopotential on this center.
   21          6
                                   No pseudopotential on this center.
   22          6
                                   No pseudopotential on this center.
   23          6
                                   No pseudopotential on this center.
   24          6
                                   No pseudopotential on this center.
   25          6
                                   No pseudopotential on this center.
   26          6
                                   No pseudopotential on this center.
   27          1
                                   No pseudopotential on this center.
   28          6
                                   No pseudopotential on this center.
   29          1
                                   No pseudopotential on this center.
   30          1
                                   No pseudopotential on this center.
   31          1
                                   No pseudopotential on this center.
   32          7
                                   No pseudopotential on this center.
   33          7
                                   No pseudopotential on this center.
   34          7
                                   No pseudopotential on this center.
   35          7
                                   No pseudopotential on this center.
   36          6
                                   No pseudopotential on this center.
   37          1
                                   No pseudopotential on this center.
   38          1
                                   No pseudopotential on this center.
   39          1
                                   No pseudopotential on this center.
   40          6
                                   No pseudopotential on this center.
   41          1
                                   No pseudopotential on this center.
   42          1
                                   No pseudopotential on this center.
   43          1
                                   No pseudopotential on this center.
   44         27           17
                                      F and up 
                                                     2        1.0000000        0.00000000    0.00000000
                                      S - F
                                                     2       23.6600000      283.96056600    0.00000000
                                                     2       10.6100000       47.15684600    0.00000000
                                      P - F
                                                     2       25.0400000      182.21223600    0.00000000
                                                     2       10.4400000       35.23335200    0.00000000
                                      D - F
                                                     2       29.5400000      -26.47533300    0.00000000
                                                     2       10.1800000       -1.82578700    0.00000000
 ======================================================================================================
   441 basis functions,   871 primitive gaussians,   473 cartesian basis functions
    98 alpha electrons       96 beta electrons
       nuclear repulsion energy      2477.2567566154 Hartrees.
 NAtoms=   44 NActive=   44 NUniq=   44 SFac= 1.00D+00 NAtFMM=   60 NAOKFM=F Big=F
 Integral buffers will be    131072 words long.
 Raffenetti 2 integral format.
 Two-electron integral symmetry is turned off.
 Nuclear repulsion after empirical dispersion term =     2477.1978041716 Hartrees.
 One-electron integrals computed using PRISM.
   1 Symmetry operations used in ECPInt.
 ECPInt:  NShTT=   11781 NPrTT=   71406 LenC2=    9496 LenP2D=   31942.
 LDataN:  DoStor=T MaxTD1= 6 Len=  172
 NBasis=   441 RedAO= T EigKep=  3.23D-04  NBF=   441
 NBsUse=   441 1.00D-06 EigRej= -1.00D+00 NBFU=   441
 Initial guess from the checkpoint file:  "b.chk"
 B after Tr=    -0.000000    0.000433    0.000003
         Rot=    1.000000    0.000000    0.000000    0.000000 Ang=   0.00 deg.
 Initial guess <Sx>= 0.0000 <Sy>= 0.0000 <Sz>= 1.0000 <S**2>= 2.3480 S= 1.1118
 Requested convergence on RMS density matrix=1.00D-08 within  64 cycles.
 Requested convergence on MAX density matrix=1.00D-06.
 Requested convergence on             energy=1.00D-06.
 No special actions if energy rises.
 Restarting incremental Fock formation.
 SCF Done:  E(UPBE1PBE) =  -1212.11168351     A.U. after   31 cycles
            NFock= 31  Conv=0.26D-08     -V/T= 2.0553
 <Sx>= 0.0000 <Sy>= 0.0000 <Sz>= 1.0000 <S**2>= 2.3473 S= 1.1116
 <L.S>=  0.00000000000    
 Annihilation of the first spin contaminant:
 S**2 before annihilation     2.3473,   after     2.0090
 QCSCF skips out because SCF is already converged.

 **********************************************************************

            Population analysis using the SCF Density.

 **********************************************************************

 Alpha  occ. eigenvalues --  -14.45300 -14.45300 -14.45161 -14.45160 -10.28131
 Alpha  occ. eigenvalues --  -10.28131 -10.27531 -10.27531 -10.27256 -10.27256
 Alpha  occ. eigenvalues --  -10.27213 -10.27213 -10.26764 -10.26764 -10.23663
 Alpha  occ. eigenvalues --  -10.23663 -10.23574 -10.23574 -10.23067 -10.23066
 Alpha  occ. eigenvalues --  -10.22959 -10.22959 -10.22469 -10.22457 -10.22364
 Alpha  occ. eigenvalues --  -10.21099  -3.93416  -2.45277  -2.43718  -2.43257
 Alpha  occ. eigenvalues --   -1.05602  -1.05526  -0.97000  -0.96612  -0.88005
 Alpha  occ. eigenvalues --   -0.87611  -0.85592  -0.80396  -0.78817  -0.77594
 Alpha  occ. eigenvalues --   -0.77586  -0.75525  -0.74817  -0.73218  -0.72333
 Alpha  occ. eigenvalues --   -0.66711  -0.65295  -0.64367  -0.64077  -0.62620
 Alpha  occ. eigenvalues --   -0.61292  -0.58922  -0.57588  -0.56558  -0.53942
 Alpha  occ. eigenvalues --   -0.53046  -0.52302  -0.49634  -0.49552  -0.49087
 Alpha  occ. eigenvalues --   -0.48550  -0.48077  -0.47259  -0.46752  -0.45838
 Alpha  occ. eigenvalues --   -0.45671  -0.45327  -0.44799  -0.44766  -0.44061
 Alpha  occ. eigenvalues --   -0.42743  -0.41890  -0.41296  -0.38907  -0.38517
 Alpha  occ. eigenvalues --   -0.38455  -0.37466  -0.37303  -0.37176  -0.36915
 Alpha  occ. eigenvalues --   -0.36314  -0.35066  -0.34563  -0.33964  -0.31964
 Alpha  occ. eigenvalues --   -0.31268  -0.30377  -0.26881  -0.26584  -0.26513
 Alpha  occ. eigenvalues --   -0.26098  -0.26019  -0.24505  -0.24232  -0.22915
 Alpha  occ. eigenvalues --   -0.20926  -0.20710  -0.10083
 Alpha virt. eigenvalues --   -0.06353  -0.03023  -0.00272  -0.00061   0.00346
 Alpha virt. eigenvalues --    0.02226   0.02759   0.03409   0.03800   0.05626
 Alpha virt. eigenvalues --    0.06121   0.07572   0.07589   0.09636   0.10191
 Alpha virt. eigenvalues --    0.12549   0.13004   0.13764   0.13955   0.14864
 Alpha virt. eigenvalues --    0.15152   0.15343   0.15719   0.15974   0.16507
 Alpha virt. eigenvalues --    0.16902   0.17628   0.17797   0.17837   0.18100
 Alpha virt. eigenvalues --    0.19363   0.19790   0.19810   0.19850   0.20998
 Alpha virt. eigenvalues --    0.21670   0.22096   0.22646   0.23720   0.25333
 Alpha virt. eigenvalues --    0.25503   0.25563   0.26131   0.27564   0.27648
 Alpha virt. eigenvalues --    0.27801   0.28579   0.29721   0.30431   0.31176
 Alpha virt. eigenvalues --    0.32815   0.32988   0.33834   0.34692   0.36247
 Alpha virt. eigenvalues --    0.37401   0.37551   0.39197   0.39275   0.41419
 Alpha virt. eigenvalues --    0.42170   0.43999   0.44117   0.45834   0.46588
 Alpha virt. eigenvalues --    0.46942   0.49245   0.51142   0.51652   0.51945
 Alpha virt. eigenvalues --    0.53799   0.53989   0.56138   0.56149   0.56262
 Alpha virt. eigenvalues --    0.56841   0.57004   0.57984   0.58317   0.58609
 Alpha virt. eigenvalues --    0.58625   0.59467   0.60274   0.61435   0.61500
 Alpha virt. eigenvalues --    0.61597   0.62926   0.63062   0.63210   0.63466
 Alpha virt. eigenvalues --    0.63533   0.63588   0.64090   0.64256   0.65061
 Alpha virt. eigenvalues --    0.65159   0.65799   0.65901   0.66966   0.67312
 Alpha virt. eigenvalues --    0.67889   0.68412   0.68838   0.70947   0.71883
 Alpha virt. eigenvalues --    0.71991   0.73355   0.75016   0.75442   0.76051
 Alpha virt. eigenvalues --    0.76843   0.77812   0.79208   0.79628   0.81031
 Alpha virt. eigenvalues --    0.81608   0.82229   0.82667   0.83591   0.84292
 Alpha virt. eigenvalues --    0.84485   0.84904   0.86041   0.86516   0.86622
 Alpha virt. eigenvalues --    0.87429   0.87657   0.89390   0.89507   0.90456
 Alpha virt. eigenvalues --    0.90863   0.91234   0.91629   0.92836   0.93076
 Alpha virt. eigenvalues --    0.93386   0.94505   0.94980   0.95051   0.95765
 Alpha virt. eigenvalues --    0.97094   0.97523   0.97609   0.98296   0.98363
 Alpha virt. eigenvalues --    1.00030   1.00128   1.01229   1.02108   1.02530
 Alpha virt. eigenvalues --    1.02589   1.03813   1.06018   1.07117   1.07792
 Alpha virt. eigenvalues --    1.08207   1.09364   1.09536   1.10331   1.13502
 Alpha virt. eigenvalues --    1.14761   1.15383   1.16246   1.18147   1.18395
 Alpha virt. eigenvalues --    1.19136   1.19473   1.23247   1.23695   1.24184
 Alpha virt. eigenvalues --    1.24500   1.25679   1.26376   1.26412   1.28869
 Alpha virt. eigenvalues --    1.28937   1.29225   1.31136   1.33362   1.33711
 Alpha virt. eigenvalues --    1.36314   1.36326   1.36446   1.38450   1.39242
 Alpha virt. eigenvalues --    1.41070   1.42105   1.42418   1.42599   1.45153
 Alpha virt. eigenvalues --    1.45303   1.45501   1.45659   1.47255   1.48184
 Alpha virt. eigenvalues --    1.49434   1.50058   1.50167   1.50266   1.50361
 Alpha virt. eigenvalues --    1.50387   1.52146   1.52287   1.56272   1.56497
 Alpha virt. eigenvalues --    1.57540   1.61738   1.63908   1.64611   1.65390
 Alpha virt. eigenvalues --    1.70115   1.72272   1.72687   1.76427   1.77046
 Alpha virt. eigenvalues --    1.78005   1.79476   1.79540   1.82060   1.82645
 Alpha virt. eigenvalues --    1.84522   1.86257   1.86663   1.87191   1.87767
 Alpha virt. eigenvalues --    1.87900   1.89416   1.90925   1.91333   1.92920
 Alpha virt. eigenvalues --    1.94783   1.95030   1.96403   1.96687   1.97628
 Alpha virt. eigenvalues --    1.97827   1.98253   1.98475   1.98875   1.99416
 Alpha virt. eigenvalues --    2.00363   2.01112   2.02352   2.03042   2.05580
 Alpha virt. eigenvalues --    2.06178   2.06751   2.09116   2.09640   2.12026
 Alpha virt. eigenvalues --    2.12549   2.14269   2.15009   2.15176   2.15926
 Alpha virt. eigenvalues --    2.16423   2.16584   2.18968   2.19562   2.20423
 Alpha virt. eigenvalues --    2.21179   2.21187   2.21647   2.23520   2.24035
 Alpha virt. eigenvalues --    2.24358   2.26302   2.27176   2.27319   2.27371
 Alpha virt. eigenvalues --    2.27789   2.27969   2.28320   2.28670   2.32549
 Alpha virt. eigenvalues --    2.33968   2.38133   2.38622   2.40261   2.40264
 Alpha virt. eigenvalues --    2.42515   2.43713   2.44246   2.44580   2.46522
 Alpha virt. eigenvalues --    2.51065   2.51237   2.57032   2.58311   2.58674
 Alpha virt. eigenvalues --    2.58942   2.59789   2.59974   2.61962   2.63638
 Alpha virt. eigenvalues --    2.65077   2.66613   2.67036   2.67987   2.69017
 Alpha virt. eigenvalues --    2.69047   2.70422   2.72065   2.74485   2.74496
 Alpha virt. eigenvalues --    2.74545   2.76172   2.77698   2.78726   2.79843
 Alpha virt. eigenvalues --    2.82151   2.84338   2.87425   2.88263   2.91744
 Alpha virt. eigenvalues --    2.93125   2.96208   2.98164   2.98836   2.99852
 Alpha virt. eigenvalues --    3.05510   3.06598   3.14168   3.17624   3.18611
 Alpha virt. eigenvalues --    3.28755   3.38684   3.45203   3.46607   3.51529
 Alpha virt. eigenvalues --    3.51601   3.55397   5.55351   5.56727   5.57119
 Alpha virt. eigenvalues --    5.59570   5.61025   5.61066   5.62509  45.70413
 Alpha virt. eigenvalues --   45.84667  45.90761  63.01087
  Beta  occ. eigenvalues --  -14.45174 -14.45174 -14.45135 -14.45135 -10.27907
  Beta  occ. eigenvalues --  -10.27907 -10.27533 -10.27533 -10.27265 -10.27265
  Beta  occ. eigenvalues --  -10.27250 -10.27250 -10.26652 -10.26652 -10.23603
  Beta  occ. eigenvalues --  -10.23603 -10.23552 -10.23552 -10.23076 -10.23075
  Beta  occ. eigenvalues --  -10.22924 -10.22924 -10.22558 -10.22554 -10.22263
  Beta  occ. eigenvalues --  -10.21706  -3.85556  -2.36824  -2.36211  -2.33889
  Beta  occ. eigenvalues --   -1.05402  -1.05321  -0.96840  -0.96412  -0.88007
  Beta  occ. eigenvalues --   -0.87540  -0.85709  -0.80340  -0.78799  -0.77538
  Beta  occ. eigenvalues --   -0.77527  -0.75396  -0.74619  -0.73229  -0.72595
  Beta  occ. eigenvalues --   -0.66751  -0.65212  -0.64121  -0.64069  -0.62621
  Beta  occ. eigenvalues --   -0.61196  -0.58918  -0.57697  -0.56557  -0.53924
  Beta  occ. eigenvalues --   -0.53032  -0.52284  -0.49177  -0.49109  -0.49063
  Beta  occ. eigenvalues --   -0.48579  -0.48233  -0.47238  -0.46749  -0.45808
  Beta  occ. eigenvalues --   -0.45674  -0.45297  -0.44806  -0.44421  -0.43753
  Beta  occ. eigenvalues --   -0.42791  -0.41869  -0.41312  -0.38646  -0.38588
  Beta  occ. eigenvalues --   -0.38556  -0.37297  -0.37275  -0.36514  -0.36438
  Beta  occ. eigenvalues --   -0.35664  -0.35147  -0.34025  -0.33324  -0.31638
  Beta  occ. eigenvalues --   -0.29771  -0.27363  -0.26528  -0.25919  -0.24776
  Beta  occ. eigenvalues --   -0.23767  -0.23184  -0.21948  -0.20739  -0.19828
  Beta  occ. eigenvalues --   -0.19579
  Beta virt. eigenvalues --   -0.04424  -0.03909  -0.00776  -0.00298  -0.00111
  Beta virt. eigenvalues --    0.01368   0.01737   0.02416   0.03498   0.05377
  Beta virt. eigenvalues --    0.05642   0.06019   0.07895   0.08650   0.09289
  Beta virt. eigenvalues --    0.10212   0.10570   0.12638   0.13105   0.13885
  Beta virt. eigenvalues --    0.14266   0.15266   0.15290   0.15999   0.16043
  Beta virt. eigenvalues --    0.16560   0.16652   0.16944   0.17716   0.17956
  Beta virt. eigenvalues --    0.18438   0.18699   0.19507   0.19892   0.20060
  Beta virt. eigenvalues --    0.21447   0.21783   0.22281   0.22617   0.22655
  Beta virt. eigenvalues --    0.23775   0.25614   0.25619   0.26092   0.27012
  Beta virt. eigenvalues --    0.27591   0.27888   0.29054   0.29069   0.30089
  Beta virt. eigenvalues --    0.30745   0.31290   0.32938   0.32959   0.34183
  Beta virt. eigenvalues --    0.34742   0.36362   0.37663   0.37836   0.39337
  Beta virt. eigenvalues --    0.39361   0.41380   0.42574   0.44293   0.44501
  Beta virt. eigenvalues --    0.45891   0.46993   0.47443   0.49547   0.51225
  Beta virt. eigenvalues --    0.51783   0.51946   0.53896   0.54126   0.56173
  Beta virt. eigenvalues --    0.56184   0.56461   0.56899   0.57064   0.58163
  Beta virt. eigenvalues --    0.58443   0.58658   0.58890   0.59522   0.60333
  Beta virt. eigenvalues --    0.61578   0.61588   0.61719   0.62939   0.62977
  Beta virt. eigenvalues --    0.63380   0.63504   0.63628   0.63714   0.64124
  Beta virt. eigenvalues --    0.64266   0.65053   0.65200   0.65855   0.66063
  Beta virt. eigenvalues --    0.67399   0.67605   0.67920   0.68617   0.68643
  Beta virt. eigenvalues --    0.70956   0.71842   0.72126   0.73661   0.75266
  Beta virt. eigenvalues --    0.75443   0.76178   0.76935   0.78284   0.79345
  Beta virt. eigenvalues --    0.80221   0.81225   0.81821   0.82447   0.82707
  Beta virt. eigenvalues --    0.84015   0.84377   0.84544   0.85162   0.86039
  Beta virt. eigenvalues --    0.86826   0.86964   0.87444   0.87662   0.89497
  Beta virt. eigenvalues --    0.89652   0.90518   0.91146   0.91238   0.91759
  Beta virt. eigenvalues --    0.92856   0.93078   0.93436   0.95010   0.95197
  Beta virt. eigenvalues --    0.96144   0.96316   0.97098   0.97659   0.97892
  Beta virt. eigenvalues --    0.98290   0.98420   1.00130   1.00136   1.01273
  Beta virt. eigenvalues --    1.02152   1.02568   1.02619   1.03890   1.06116
  Beta virt. eigenvalues --    1.07141   1.08285   1.09273   1.09358   1.10682
  Beta virt. eigenvalues --    1.13566   1.14868   1.15431   1.16274   1.16700
  Beta virt. eigenvalues --    1.18169   1.18428   1.19169   1.19585   1.23291
  Beta virt. eigenvalues --    1.23832   1.24396   1.24563   1.26272   1.26436
  Beta virt. eigenvalues --    1.26550   1.29032   1.29122   1.29381   1.31106
  Beta virt. eigenvalues --    1.33730   1.34012   1.36502   1.36579   1.36714
  Beta virt. eigenvalues --    1.38589   1.39547   1.41321   1.42443   1.42681
  Beta virt. eigenvalues --    1.42943   1.45100   1.45404   1.45691   1.45799
  Beta virt. eigenvalues --    1.47438   1.48298   1.49612   1.50066   1.50411
  Beta virt. eigenvalues --    1.50429   1.50479   1.50550   1.52599   1.53516
  Beta virt. eigenvalues --    1.56390   1.56519   1.58373   1.61907   1.63944
  Beta virt. eigenvalues --    1.65372   1.65634   1.70162   1.72671   1.72828
  Beta virt. eigenvalues --    1.76644   1.77011   1.78324   1.79420   1.79673
  Beta virt. eigenvalues --    1.82152   1.82730   1.84583   1.86388   1.86789
  Beta virt. eigenvalues --    1.87191   1.87591   1.87844   1.89610   1.90948
  Beta virt. eigenvalues --    1.91400   1.92951   1.94802   1.95083   1.96417
  Beta virt. eigenvalues --    1.96752   1.97773   1.97884   1.98278   1.98449
  Beta virt. eigenvalues --    1.99001   1.99645   2.00396   2.01160   2.02393
  Beta virt. eigenvalues --    2.03106   2.05670   2.06363   2.06997   2.09280
  Beta virt. eigenvalues --    2.09556   2.12177   2.12525   2.14595   2.15066
  Beta virt. eigenvalues --    2.15199   2.15992   2.16554   2.16602   2.19077
  Beta virt. eigenvalues --    2.19802   2.20534   2.21262   2.21269   2.21771
  Beta virt. eigenvalues --    2.23776   2.24362   2.24514   2.26509   2.27285
  Beta virt. eigenvalues --    2.27397   2.27444   2.27918   2.28213   2.28532
  Beta virt. eigenvalues --    2.28833   2.32660   2.34358   2.38265   2.39057
  Beta virt. eigenvalues --    2.40389   2.40443   2.44070   2.44536   2.44816
  Beta virt. eigenvalues --    2.46562   2.48482   2.51156   2.51301   2.57228
  Beta virt. eigenvalues --    2.58571   2.58716   2.58830   2.59976   2.60269
  Beta virt. eigenvalues --    2.62050   2.63838   2.65294   2.66734   2.67470
  Beta virt. eigenvalues --    2.68941   2.69060   2.69095   2.71583   2.72588
  Beta virt. eigenvalues --    2.74601   2.74660   2.74851   2.77103   2.77947
  Beta virt. eigenvalues --    2.79105   2.79947   2.82456   2.84624   2.87741
  Beta virt. eigenvalues --    2.88429   2.92651   2.93110   2.96477   2.98093
  Beta virt. eigenvalues --    2.99266   2.99914   3.05681   3.06793   3.14210
  Beta virt. eigenvalues --    3.17811   3.18784   3.28522   3.38704   3.45851
  Beta virt. eigenvalues --    3.46610   3.51491   3.51612   3.58526   5.61475
  Beta virt. eigenvalues --    5.63551   5.63747   5.63852   5.65494   5.68161
  Beta virt. eigenvalues --    5.69349  45.81209  45.93188  45.99101  63.07781
          Condensed to atoms (all electrons):
               1          2          3          4          5          6
     1  C    5.196802   0.501709  -0.060701  -0.055430  -0.060701   0.501713
     2  C    0.501709   4.566294   0.525844  -0.015324  -0.039391  -0.017517
     3  C   -0.060701   0.525844   5.044545   0.527519  -0.030462  -0.039392
     4  C   -0.055430  -0.015324   0.527519   4.908551   0.527516  -0.015324
     5  C   -0.060701  -0.039391  -0.030462   0.527516   5.044550   0.525842
     6  C    0.501713  -0.017517  -0.039392  -0.015324   0.525842   4.566291
     7  H    0.006027  -0.038390   0.345691  -0.039266   0.003904   0.000756
     8  H    0.001392   0.002565  -0.035398   0.366683  -0.035398   0.002565
     9  H    0.006027   0.000756   0.003904  -0.039266   0.345692  -0.038389
    10  C    0.005781  -0.000029   0.000003   0.000108  -0.004645  -0.043284
    11  C    0.006138   0.001741  -0.000038   0.000035   0.002469  -0.062452
    12  C   -0.000661   0.000001  -0.000000   0.000000   0.000102   0.007082
    13  C    0.000161   0.000001  -0.000001   0.000051   0.001698  -0.004167
    14  C    0.000002  -0.000000   0.000000  -0.000000   0.000001  -0.000041
    15  C    0.000001  -0.000000   0.000000  -0.000001   0.000067   0.000057
    16  H   -0.000023   0.000000   0.000001   0.000086   0.000079   0.000833
    17  C    0.000000   0.000000   0.000000   0.000000  -0.000000  -0.000001
    18  H   -0.000000   0.000000   0.000000   0.000000  -0.000000   0.000002
    19  H   -0.000000   0.000000  -0.000000   0.000000   0.000001  -0.000003
    20  H    0.000000  -0.000000   0.000000  -0.000000  -0.000000  -0.000000
    21  C    0.005781  -0.043284  -0.004645   0.000108   0.000003  -0.000029
    22  C    0.006137  -0.062452   0.002469   0.000035  -0.000038   0.001741
    23  C   -0.000661   0.007082   0.000102   0.000000  -0.000000   0.000001
    24  C    0.000161  -0.004168   0.001698   0.000051  -0.000001   0.000001
    25  C    0.000002  -0.000041   0.000001  -0.000000   0.000000  -0.000000
    26  C    0.000001   0.000057   0.000067  -0.000001   0.000000  -0.000000
    27  H   -0.000023   0.000833   0.000079   0.000086   0.000001   0.000000
    28  C    0.000000  -0.000001  -0.000000   0.000000   0.000000   0.000000
    29  H   -0.000000   0.000002  -0.000000   0.000000   0.000000   0.000000
    30  H   -0.000000  -0.000003   0.000001   0.000000  -0.000000   0.000000
    31  H    0.000000  -0.000000  -0.000000  -0.000000   0.000000  -0.000000
    32  N   -0.040697   0.269072  -0.070040   0.004565   0.000043   0.005998
    33  N    0.001183   0.005963  -0.000160   0.000001   0.000000  -0.000031
    34  N   -0.040698   0.005997   0.000043   0.004565  -0.070039   0.269073
    35  N    0.001183  -0.000031   0.000000   0.000001  -0.000160   0.005963
    36  C   -0.000006   0.000000   0.000000  -0.000000   0.000002  -0.000045
    37  H   -0.000000  -0.000000   0.000000   0.000000  -0.000000   0.000003
    38  H   -0.000000  -0.000000   0.000000   0.000000  -0.000000   0.000003
    39  H   -0.000021   0.000001   0.000000  -0.000000   0.000000  -0.000009
    40  C   -0.000006  -0.000045   0.000002  -0.000000   0.000000   0.000000
    41  H   -0.000000   0.000003  -0.000000   0.000000   0.000000  -0.000000
    42  H   -0.000000   0.000003  -0.000000   0.000000   0.000000  -0.000000
    43  H   -0.000021  -0.000009   0.000000  -0.000000   0.000000   0.000001
    44  Co   0.253661  -0.058349   0.003966   0.003475   0.003966  -0.058349
               7          8          9         10         11         12
     1  C    0.006027   0.001392   0.006027   0.005781   0.006138  -0.000661
     2  C   -0.038390   0.002565   0.000756  -0.000029   0.001741   0.000001
     3  C    0.345691  -0.035398   0.003904   0.000003  -0.000038  -0.000000
     4  C   -0.039266   0.366683  -0.039266   0.000108   0.000035   0.000000
     5  C    0.003904  -0.035398   0.345692  -0.004645   0.002469   0.000102
     6  C    0.000756   0.002565  -0.038389  -0.043284  -0.062452   0.007082
     7  H    0.555359  -0.004193  -0.000102  -0.000000  -0.000000   0.000000
     8  H   -0.004193   0.541875  -0.004192  -0.000002   0.000001  -0.000000
     9  H   -0.000102  -0.004192   0.555356   0.000447  -0.000152  -0.000035
    10  C   -0.000000  -0.000002   0.000447   4.635422  -0.067347   0.515023
    11  C   -0.000000   0.000001  -0.000152  -0.067347   4.812913  -0.056247
    12  C    0.000000  -0.000000  -0.000035   0.515023  -0.056247   4.647733
    13  C   -0.000000   0.000002   0.000020   0.539826   0.004656  -0.055309
    14  C   -0.000000   0.000000   0.000000  -0.048096   0.005428   0.532834
    15  C   -0.000000   0.000000   0.000095  -0.006248  -0.000070  -0.037819
    16  H    0.000000  -0.000009   0.005946  -0.034282  -0.000152   0.003728
    17  C    0.000000  -0.000000   0.000002  -0.039246  -0.000075  -0.007738
    18  H    0.000000  -0.000000  -0.000000   0.003913  -0.000203  -0.038114
    19  H    0.000000   0.000000  -0.000008   0.001965   0.000003   0.000926
    20  H   -0.000000  -0.000000   0.000000   0.000898   0.000003   0.002284
    21  C    0.000447  -0.000002  -0.000000  -0.000000  -0.000006   0.000000
    22  C   -0.000152   0.000001  -0.000000  -0.000006  -0.010952  -0.000001
    23  C   -0.000035  -0.000000   0.000000   0.000000  -0.000001  -0.000000
    24  C    0.000020   0.000002  -0.000000   0.000000   0.000000   0.000000
    25  C    0.000000   0.000000  -0.000000  -0.000000   0.000000   0.000000
    26  C    0.000095   0.000000  -0.000000  -0.000000  -0.000000   0.000000
    27  H    0.005946  -0.000009   0.000000   0.000000   0.000000  -0.000000
    28  C    0.000002  -0.000000   0.000000   0.000000  -0.000000  -0.000000
    29  H   -0.000000  -0.000000   0.000000   0.000000   0.000000  -0.000000
    30  H   -0.000008   0.000000   0.000000   0.000000   0.000000   0.000000
    31  H    0.000000  -0.000000  -0.000000   0.000000   0.000000   0.000000
    32  N   -0.003965  -0.000094   0.000007   0.000000   0.000199   0.000000
    33  N    0.000002  -0.000000  -0.000000   0.000000   0.000014   0.000000
    34  N    0.000007  -0.000094  -0.003965   0.255856   0.340180  -0.038860
    35  N   -0.000000  -0.000000   0.000002  -0.045894   0.305799   0.271512
    36  C   -0.000000   0.000000  -0.000000   0.005630  -0.043799  -0.047382
    37  H    0.000000  -0.000000   0.000000  -0.000128   0.000741  -0.001126
    38  H    0.000000  -0.000000   0.000000  -0.000127   0.000736  -0.001122
    39  H    0.000000   0.000000   0.000000   0.000014  -0.000358   0.002645
    40  C   -0.000000   0.000000  -0.000000   0.000000   0.000012   0.000000
    41  H    0.000000  -0.000000   0.000000  -0.000000  -0.000000  -0.000000
    42  H    0.000000  -0.000000   0.000000  -0.000000  -0.000000  -0.000000
    43  H    0.000000   0.000000   0.000000  -0.000000  -0.000001  -0.000000
    44  Co  -0.000666   0.000120  -0.000666   0.007796   0.388410   0.004800
              13         14         15         16         17         18
     1  C    0.000161   0.000002   0.000001  -0.000023   0.000000  -0.000000
     2  C    0.000001  -0.000000  -0.000000   0.000000   0.000000   0.000000
     3  C   -0.000001   0.000000   0.000000   0.000001   0.000000   0.000000
     4  C    0.000051  -0.000000  -0.000001   0.000086   0.000000   0.000000
     5  C    0.001698   0.000001   0.000067   0.000079  -0.000000  -0.000000
     6  C   -0.004167  -0.000041   0.000057   0.000833  -0.000001   0.000002
     7  H   -0.000000  -0.000000  -0.000000   0.000000   0.000000   0.000000
     8  H    0.000002   0.000000   0.000000  -0.000009  -0.000000  -0.000000
     9  H    0.000020   0.000000   0.000095   0.005946   0.000002  -0.000000
    10  C    0.539826  -0.048096  -0.006248  -0.034282  -0.039246   0.003913
    11  C    0.004656   0.005428  -0.000070  -0.000152  -0.000075  -0.000203
    12  C   -0.055309   0.532834  -0.037819   0.003728  -0.007738  -0.038114
    13  C    5.027687  -0.044870   0.507599   0.355966  -0.035928   0.000294
    14  C   -0.044870   5.037033  -0.038551   0.000462   0.515934   0.362527
    15  C    0.507599  -0.038551   4.899282  -0.036048   0.559459   0.003963
    16  H    0.355966   0.000462  -0.036048   0.518686   0.003754   0.000014
    17  C   -0.035928   0.515934   0.559459   0.003754   4.884877  -0.035916
    18  H    0.000294   0.362527   0.003963   0.000014  -0.035916   0.536970
    19  H   -0.035863   0.004035   0.368923  -0.004083  -0.036154  -0.000152
    20  H    0.004033  -0.036802  -0.036420  -0.000151   0.368188  -0.004259
    21  C    0.000000  -0.000000  -0.000000   0.000000   0.000000   0.000000
    22  C    0.000000   0.000000  -0.000000   0.000000  -0.000000   0.000000
    23  C    0.000000   0.000000   0.000000  -0.000000  -0.000000  -0.000000
    24  C    0.000000  -0.000000  -0.000000   0.000000   0.000000   0.000000
    25  C   -0.000000  -0.000000   0.000000  -0.000000  -0.000000   0.000000
    26  C   -0.000000   0.000000  -0.000000  -0.000000   0.000000   0.000000
    27  H    0.000000  -0.000000  -0.000000   0.000000   0.000000  -0.000000
    28  C    0.000000  -0.000000   0.000000   0.000000   0.000000   0.000000
    29  H    0.000000   0.000000   0.000000  -0.000000   0.000000  -0.000000
    30  H   -0.000000  -0.000000   0.000000  -0.000000   0.000000   0.000000
    31  H   -0.000000   0.000000   0.000000  -0.000000   0.000000   0.000000
    32  N   -0.000000  -0.000000   0.000000   0.000000   0.000000  -0.000000
    33  N   -0.000000  -0.000000   0.000000   0.000000   0.000000  -0.000000
    34  N   -0.077458   0.008987   0.005108  -0.005022  -0.000204  -0.000090
    35  N    0.009391  -0.083766  -0.000148  -0.000099   0.005384  -0.007235
    36  C   -0.000120  -0.002945   0.000009   0.000003  -0.000109   0.004133
    37  H   -0.000008   0.002629  -0.000002  -0.000000  -0.000007   0.000491
    38  H   -0.000008   0.002627  -0.000002  -0.000000  -0.000007   0.000489
    39  H    0.000006   0.000013  -0.000000  -0.000000   0.000001  -0.000030
    40  C    0.000000   0.000000  -0.000000   0.000000   0.000000  -0.000000
    41  H    0.000000   0.000000  -0.000000   0.000000  -0.000000  -0.000000
    42  H    0.000000   0.000000  -0.000000   0.000000  -0.000000  -0.000000
    43  H   -0.000000   0.000000  -0.000000   0.000000  -0.000000   0.000000
    44  Co  -0.000473  -0.000430  -0.000024   0.000057   0.000009   0.000024
              19         20         21         22         23         24
     1  C   -0.000000   0.000000   0.005781   0.006137  -0.000661   0.000161
     2  C    0.000000  -0.000000  -0.043284  -0.062452   0.007082  -0.004168
     3  C   -0.000000   0.000000  -0.004645   0.002469   0.000102   0.001698
     4  C    0.000000  -0.000000   0.000108   0.000035   0.000000   0.000051
     5  C    0.000001  -0.000000   0.000003  -0.000038  -0.000000  -0.000001
     6  C   -0.000003  -0.000000  -0.000029   0.001741   0.000001   0.000001
     7  H    0.000000  -0.000000   0.000447  -0.000152  -0.000035   0.000020
     8  H    0.000000  -0.000000  -0.000002   0.000001  -0.000000   0.000002
     9  H   -0.000008   0.000000  -0.000000  -0.000000   0.000000  -0.000000
    10  C    0.001965   0.000898  -0.000000  -0.000006   0.000000   0.000000
    11  C    0.000003   0.000003  -0.000006  -0.010952  -0.000001   0.000000
    12  C    0.000926   0.002284   0.000000  -0.000001  -0.000000   0.000000
    13  C   -0.035863   0.004033   0.000000   0.000000   0.000000   0.000000
    14  C    0.004035  -0.036802  -0.000000   0.000000   0.000000  -0.000000
    15  C    0.368923  -0.036420  -0.000000  -0.000000   0.000000  -0.000000
    16  H   -0.004083  -0.000151   0.000000   0.000000  -0.000000   0.000000
    17  C   -0.036154   0.368188   0.000000  -0.000000  -0.000000   0.000000
    18  H   -0.000152  -0.004259   0.000000   0.000000  -0.000000   0.000000
    19  H    0.534441  -0.004606   0.000000   0.000000   0.000000  -0.000000
    20  H   -0.004606   0.537780   0.000000   0.000000   0.000000  -0.000000
    21  C    0.000000   0.000000   4.635404  -0.067345   0.515013   0.539832
    22  C    0.000000   0.000000  -0.067345   4.812900  -0.056247   0.004656
    23  C    0.000000   0.000000   0.515013  -0.056247   4.647729  -0.055311
    24  C   -0.000000  -0.000000   0.539832   0.004656  -0.055311   5.027703
    25  C   -0.000000   0.000000  -0.048096   0.005428   0.532842  -0.044878
    26  C    0.000000   0.000000  -0.006244  -0.000070  -0.037821   0.507597
    27  H   -0.000000  -0.000000  -0.034280  -0.000152   0.003728   0.355960
    28  C    0.000000   0.000000  -0.039247  -0.000075  -0.007733  -0.035924
    29  H    0.000000   0.000000   0.003913  -0.000203  -0.038115   0.000294
    30  H    0.000000   0.000000   0.001964   0.000003   0.000926  -0.035860
    31  H    0.000000   0.000000   0.000898   0.000003   0.002283   0.004033
    32  N    0.000000   0.000000   0.255854   0.340180  -0.038857  -0.077465
    33  N   -0.000000  -0.000000  -0.045890   0.305801   0.271509   0.009393
    34  N   -0.000087   0.000004   0.000000   0.000199   0.000000  -0.000000
    35  N    0.000004  -0.000096   0.000000   0.000014   0.000000  -0.000000
    36  C   -0.000000  -0.000002   0.000000   0.000012   0.000000   0.000000
    37  H   -0.000000  -0.000000  -0.000000  -0.000000  -0.000000   0.000000
    38  H   -0.000000  -0.000000  -0.000000  -0.000000  -0.000000   0.000000
    39  H   -0.000000  -0.000000  -0.000000  -0.000001  -0.000000  -0.000000
    40  C    0.000000  -0.000000   0.005630  -0.043800  -0.047383  -0.000120
    41  H   -0.000000   0.000000  -0.000127   0.000735  -0.001122  -0.000008
    42  H   -0.000000   0.000000  -0.000127   0.000741  -0.001127  -0.000008
    43  H    0.000000   0.000000   0.000014  -0.000358   0.002645   0.000006
    44  Co   0.000013  -0.000003   0.007796   0.388408   0.004800  -0.000473
              25         26         27         28         29         30
     1  C    0.000002   0.000001  -0.000023   0.000000  -0.000000  -0.000000
     2  C   -0.000041   0.000057   0.000833  -0.000001   0.000002  -0.000003
     3  C    0.000001   0.000067   0.000079  -0.000000  -0.000000   0.000001
     4  C   -0.000000  -0.000001   0.000086   0.000000   0.000000   0.000000
     5  C    0.000000   0.000000   0.000001   0.000000   0.000000  -0.000000
     6  C   -0.000000  -0.000000   0.000000   0.000000   0.000000   0.000000
     7  H    0.000000   0.000095   0.005946   0.000002  -0.000000  -0.000008
     8  H    0.000000   0.000000  -0.000009  -0.000000  -0.000000   0.000000
     9  H   -0.000000  -0.000000   0.000000   0.000000   0.000000   0.000000
    10  C   -0.000000  -0.000000   0.000000   0.000000   0.000000   0.000000
    11  C    0.000000  -0.000000   0.000000  -0.000000   0.000000   0.000000
    12  C    0.000000   0.000000  -0.000000  -0.000000  -0.000000   0.000000
    13  C   -0.000000  -0.000000   0.000000   0.000000   0.000000  -0.000000
    14  C   -0.000000   0.000000  -0.000000  -0.000000   0.000000  -0.000000
    15  C    0.000000  -0.000000  -0.000000   0.000000   0.000000   0.000000
    16  H   -0.000000  -0.000000   0.000000   0.000000  -0.000000  -0.000000
    17  C   -0.000000   0.000000   0.000000   0.000000   0.000000   0.000000
    18  H    0.000000   0.000000  -0.000000   0.000000  -0.000000   0.000000
    19  H   -0.000000   0.000000  -0.000000   0.000000   0.000000   0.000000
    20  H    0.000000   0.000000  -0.000000   0.000000   0.000000   0.000000
    21  C   -0.048096  -0.006244  -0.034280  -0.039247   0.003913   0.001964
    22  C    0.005428  -0.000070  -0.000152  -0.000075  -0.000203   0.000003
    23  C    0.532842  -0.037821   0.003728  -0.007733  -0.038115   0.000926
    24  C   -0.044878   0.507597   0.355960  -0.035924   0.000294  -0.035860
    25  C    5.037040  -0.038548   0.000462   0.515934   0.362522   0.004035
    26  C   -0.038548   4.899300  -0.036049   0.559441   0.003963   0.368926
    27  H    0.000462  -0.036049   0.518693   0.003754   0.000014  -0.004083
    28  C    0.515934   0.559441   0.003754   4.884896  -0.035917  -0.036154
    29  H    0.362522   0.003963   0.000014  -0.035917   0.536979  -0.000152
    30  H    0.004035   0.368926  -0.004083  -0.036154  -0.000152   0.534431
    31  H   -0.036800  -0.036420  -0.000151   0.368190  -0.004260  -0.004605
    32  N    0.008989   0.005108  -0.005022  -0.000204  -0.000090  -0.000087
    33  N   -0.083772  -0.000148  -0.000099   0.005385  -0.007236   0.000004
    34  N   -0.000000   0.000000   0.000000   0.000000  -0.000000   0.000000
    35  N   -0.000000   0.000000   0.000000   0.000000  -0.000000  -0.000000
    36  C    0.000000  -0.000000   0.000000   0.000000  -0.000000   0.000000
    37  H    0.000000  -0.000000   0.000000  -0.000000  -0.000000  -0.000000
    38  H    0.000000  -0.000000   0.000000  -0.000000  -0.000000  -0.000000
    39  H    0.000000  -0.000000   0.000000  -0.000000   0.000000   0.000000
    40  C   -0.002944   0.000009   0.000003  -0.000109   0.004133  -0.000000
    41  H    0.002627  -0.000002  -0.000000  -0.000007   0.000489  -0.000000
    42  H    0.002629  -0.000002  -0.000000  -0.000007   0.000491  -0.000000
    43  H    0.000013  -0.000000  -0.000000   0.000001  -0.000030  -0.000000
    44  Co  -0.000430  -0.000024   0.000057   0.000009   0.000024   0.000013
              31         32         33         34         35         36
     1  C    0.000000  -0.040697   0.001183  -0.040698   0.001183  -0.000006
     2  C   -0.000000   0.269072   0.005963   0.005997  -0.000031   0.000000
     3  C   -0.000000  -0.070040  -0.000160   0.000043   0.000000   0.000000
     4  C   -0.000000   0.004565   0.000001   0.004565   0.000001  -0.000000
     5  C    0.000000   0.000043   0.000000  -0.070039  -0.000160   0.000002
     6  C   -0.000000   0.005998  -0.000031   0.269073   0.005963  -0.000045
     7  H    0.000000  -0.003965   0.000002   0.000007  -0.000000  -0.000000
     8  H   -0.000000  -0.000094  -0.000000  -0.000094  -0.000000   0.000000
     9  H   -0.000000   0.000007  -0.000000  -0.003965   0.000002  -0.000000
    10  C    0.000000   0.000000   0.000000   0.255856  -0.045894   0.005630
    11  C    0.000000   0.000199   0.000014   0.340180   0.305799  -0.043799
    12  C    0.000000   0.000000   0.000000  -0.038860   0.271512  -0.047382
    13  C   -0.000000  -0.000000  -0.000000  -0.077458   0.009391  -0.000120
    14  C    0.000000  -0.000000  -0.000000   0.008987  -0.083766  -0.002945
    15  C    0.000000   0.000000   0.000000   0.005108  -0.000148   0.000009
    16  H   -0.000000   0.000000   0.000000  -0.005022  -0.000099   0.000003
    17  C    0.000000   0.000000   0.000000  -0.000204   0.005384  -0.000109
    18  H    0.000000  -0.000000  -0.000000  -0.000090  -0.007235   0.004133
    19  H    0.000000   0.000000  -0.000000  -0.000087   0.000004  -0.000000
    20  H    0.000000   0.000000  -0.000000   0.000004  -0.000096  -0.000002
    21  C    0.000898   0.255854  -0.045890   0.000000   0.000000   0.000000
    22  C    0.000003   0.340180   0.305801   0.000199   0.000014   0.000012
    23  C    0.002283  -0.038857   0.271509   0.000000   0.000000   0.000000
    24  C    0.004033  -0.077465   0.009393  -0.000000  -0.000000   0.000000
    25  C   -0.036800   0.008989  -0.083772  -0.000000  -0.000000   0.000000
    26  C   -0.036420   0.005108  -0.000148   0.000000   0.000000  -0.000000
    27  H   -0.000151  -0.005022  -0.000099   0.000000   0.000000   0.000000
    28  C    0.368190  -0.000204   0.005385   0.000000   0.000000   0.000000
    29  H   -0.004260  -0.000090  -0.007236  -0.000000  -0.000000  -0.000000
    30  H   -0.004605  -0.000087   0.000004   0.000000  -0.000000   0.000000
    31  H    0.537770   0.000004  -0.000096   0.000000  -0.000000  -0.000000
    32  N    0.000004   7.207473  -0.055912  -0.000055   0.000000   0.000000
    33  N   -0.000096  -0.055912   7.051436   0.000000  -0.000000  -0.000000
    34  N    0.000000  -0.000055   0.000000   7.207461  -0.055911   0.004497
    35  N   -0.000000   0.000000  -0.000000  -0.055911   7.051430   0.301018
    36  C   -0.000000   0.000000  -0.000000   0.004497   0.301018   5.051574
    37  H    0.000000   0.000000   0.000000  -0.000069  -0.041454   0.377197
    38  H    0.000000   0.000000   0.000000  -0.000068  -0.041459   0.377204
    39  H    0.000000  -0.000000   0.000000   0.000152  -0.032823   0.376714
    40  C   -0.000002   0.004497   0.301016   0.000000  -0.000000   0.000000
    41  H   -0.000000  -0.000068  -0.041459   0.000000   0.000000  -0.000000
    42  H   -0.000000  -0.000069  -0.041453   0.000000   0.000000  -0.000000
    43  H   -0.000000   0.000152  -0.032824  -0.000000   0.000000  -0.000001
    44  Co  -0.000003  -0.076516  -0.053949  -0.076516  -0.053949  -0.004144
              37         38         39         40         41         42
     1  C   -0.000000  -0.000000  -0.000021  -0.000006  -0.000000  -0.000000
     2  C   -0.000000  -0.000000   0.000001  -0.000045   0.000003   0.000003
     3  C    0.000000   0.000000   0.000000   0.000002  -0.000000  -0.000000
     4  C    0.000000   0.000000  -0.000000  -0.000000   0.000000   0.000000
     5  C   -0.000000  -0.000000   0.000000   0.000000   0.000000   0.000000
     6  C    0.000003   0.000003  -0.000009   0.000000  -0.000000  -0.000000
     7  H    0.000000   0.000000   0.000000  -0.000000   0.000000   0.000000
     8  H   -0.000000  -0.000000   0.000000   0.000000  -0.000000  -0.000000
     9  H    0.000000   0.000000   0.000000  -0.000000   0.000000   0.000000
    10  C   -0.000128  -0.000127   0.000014   0.000000  -0.000000  -0.000000
    11  C    0.000741   0.000736  -0.000358   0.000012  -0.000000  -0.000000
    12  C   -0.001126  -0.001122   0.002645   0.000000  -0.000000  -0.000000
    13  C   -0.000008  -0.000008   0.000006   0.000000   0.000000   0.000000
    14  C    0.002629   0.002627   0.000013   0.000000   0.000000   0.000000
    15  C   -0.000002  -0.000002  -0.000000  -0.000000  -0.000000  -0.000000
    16  H   -0.000000  -0.000000  -0.000000   0.000000   0.000000   0.000000
    17  C   -0.000007  -0.000007   0.000001   0.000000  -0.000000  -0.000000
    18  H    0.000491   0.000489  -0.000030  -0.000000  -0.000000  -0.000000
    19  H   -0.000000  -0.000000  -0.000000   0.000000  -0.000000  -0.000000
    20  H   -0.000000  -0.000000  -0.000000  -0.000000   0.000000   0.000000
    21  C   -0.000000  -0.000000  -0.000000   0.005630  -0.000127  -0.000127
    22  C   -0.000000  -0.000000  -0.000001  -0.043800   0.000735   0.000741
    23  C   -0.000000  -0.000000  -0.000000  -0.047383  -0.001122  -0.001127
    24  C    0.000000   0.000000  -0.000000  -0.000120  -0.000008  -0.000008
    25  C    0.000000   0.000000   0.000000  -0.002944   0.002627   0.002629
    26  C   -0.000000  -0.000000  -0.000000   0.000009  -0.000002  -0.000002
    27  H    0.000000   0.000000   0.000000   0.000003  -0.000000  -0.000000
    28  C   -0.000000  -0.000000  -0.000000  -0.000109  -0.000007  -0.000007
    29  H   -0.000000  -0.000000   0.000000   0.004133   0.000489   0.000491
    30  H   -0.000000  -0.000000   0.000000  -0.000000  -0.000000  -0.000000
    31  H    0.000000   0.000000   0.000000  -0.000002  -0.000000  -0.000000
    32  N    0.000000   0.000000  -0.000000   0.004497  -0.000068  -0.000069
    33  N    0.000000   0.000000   0.000000   0.301016  -0.041459  -0.041453
    34  N   -0.000069  -0.000068   0.000152   0.000000   0.000000   0.000000
    35  N   -0.041454  -0.041459  -0.032823  -0.000000   0.000000   0.000000
    36  C    0.377197   0.377204   0.376714   0.000000  -0.000000  -0.000000
    37  H    0.524921  -0.040549  -0.025569  -0.000000  -0.000000   0.000000
    38  H   -0.040549   0.524926  -0.025580  -0.000000   0.000000  -0.000000
    39  H   -0.025569  -0.025580   0.479283  -0.000001   0.000000   0.000000
    40  C   -0.000000  -0.000000  -0.000001   5.051577   0.377205   0.377197
    41  H   -0.000000   0.000000   0.000000   0.377205   0.524923  -0.040549
    42  H    0.000000  -0.000000   0.000000   0.377197  -0.040549   0.524919
    43  H    0.000000   0.000000  -0.000019   0.376713  -0.025581  -0.025568
    44  Co   0.001063   0.001065   0.008059  -0.004144   0.001066   0.001062
              43         44
     1  C   -0.000021   0.253661
     2  C   -0.000009  -0.058349
     3  C    0.000000   0.003966
     4  C   -0.000000   0.003475
     5  C    0.000000   0.003966
     6  C    0.000001  -0.058349
     7  H    0.000000  -0.000666
     8  H    0.000000   0.000120
     9  H    0.000000  -0.000666
    10  C   -0.000000   0.007796
    11  C   -0.000001   0.388410
    12  C   -0.000000   0.004800
    13  C   -0.000000  -0.000473
    14  C    0.000000  -0.000430
    15  C   -0.000000  -0.000024
    16  H    0.000000   0.000057
    17  C   -0.000000   0.000009
    18  H    0.000000   0.000024
    19  H    0.000000   0.000013
    20  H    0.000000  -0.000003
    21  C    0.000014   0.007796
    22  C   -0.000358   0.388408
    23  C    0.002645   0.004800
    24  C    0.000006  -0.000473
    25  C    0.000013  -0.000430
    26  C   -0.000000  -0.000024
    27  H   -0.000000   0.000057
    28  C    0.000001   0.000009
    29  H   -0.000030   0.000024
    30  H   -0.000000   0.000013
    31  H   -0.000000  -0.000003
    32  N    0.000152  -0.076516
    33  N   -0.032824  -0.053949
    34  N   -0.000000  -0.076516
    35  N    0.000000  -0.053949
    36  C   -0.000001  -0.004144
    37  H    0.000000   0.001063
    38  H    0.000000   0.001065
    39  H   -0.000019   0.008059
    40  C    0.376713  -0.004144
    41  H   -0.025581   0.001066
    42  H   -0.025568   0.001062
    43  H    0.479285   0.008059
    44  Co   0.008059  16.346550
          Atomic-Atomic Spin Densities.
               1          2          3          4          5          6
     1  C   -0.394793  -0.006872   0.005870   0.008558   0.005870  -0.006872
     2  C   -0.006872   0.088102   0.003006  -0.002512   0.001418   0.000678
     3  C    0.005870   0.003006  -0.076558  -0.005119   0.000015   0.001417
     4  C    0.008558  -0.002512  -0.005119   0.087275  -0.005119  -0.002512
     5  C    0.005870   0.001418   0.000015  -0.005119  -0.076560   0.003006
     6  C   -0.006872   0.000678   0.001417  -0.002512   0.003006   0.088099
     7  H   -0.001027   0.000508   0.004751   0.001975  -0.000042  -0.000102
     8  H   -0.000156   0.000008  -0.000040   0.000435  -0.000040   0.000008
     9  H   -0.001027  -0.000102  -0.000042   0.001975   0.004751   0.000508
    10  C   -0.000303  -0.000018   0.000001   0.000018   0.000418   0.000236
    11  C    0.006857  -0.000782   0.000006   0.000024  -0.000165  -0.006263
    12  C    0.000077   0.000000   0.000000  -0.000000  -0.000007   0.000018
    13  C    0.000015   0.000000  -0.000000   0.000002  -0.000282  -0.000385
    14  C    0.000000   0.000000  -0.000000  -0.000000  -0.000001  -0.000019
    15  C   -0.000000   0.000000   0.000000  -0.000000   0.000002   0.000006
    16  H   -0.000002  -0.000000  -0.000000   0.000003   0.000089   0.000064
    17  C   -0.000000  -0.000000   0.000000  -0.000000   0.000000   0.000002
    18  H    0.000000  -0.000000   0.000000   0.000000   0.000000   0.000000
    19  H    0.000000   0.000000  -0.000000  -0.000000   0.000000   0.000000
    20  H   -0.000000   0.000000  -0.000000  -0.000000  -0.000000  -0.000000
    21  C   -0.000303   0.000236   0.000418   0.000018   0.000001  -0.000018
    22  C    0.006856  -0.006263  -0.000165   0.000024   0.000006  -0.000782
    23  C    0.000077   0.000018  -0.000007  -0.000000   0.000000   0.000000
    24  C    0.000015  -0.000385  -0.000282   0.000002  -0.000000   0.000000
    25  C    0.000000  -0.000019  -0.000001  -0.000000  -0.000000   0.000000
    26  C   -0.000000   0.000006   0.000002  -0.000000   0.000000   0.000000
    27  H   -0.000002   0.000064   0.000089   0.000003  -0.000000  -0.000000
    28  C   -0.000000   0.000002   0.000000  -0.000000   0.000000  -0.000000
    29  H    0.000000   0.000000   0.000000   0.000000   0.000000  -0.000000
    30  H    0.000000   0.000000   0.000000  -0.000000  -0.000000   0.000000
    31  H   -0.000000  -0.000000  -0.000000  -0.000000  -0.000000   0.000000
    32  N    0.002553   0.012312   0.004883   0.000116   0.000047  -0.000156
    33  N   -0.000653   0.000343  -0.000016  -0.000000  -0.000000   0.000003
    34  N    0.002553  -0.000156   0.000047   0.000116   0.004883   0.012312
    35  N   -0.000653   0.000003  -0.000000  -0.000000  -0.000016   0.000343
    36  C   -0.000020   0.000000  -0.000000  -0.000000  -0.000000  -0.000004
    37  H    0.000000  -0.000000   0.000000   0.000000   0.000000  -0.000001
    38  H    0.000000  -0.000000   0.000000   0.000000   0.000000  -0.000001
    39  H    0.000015  -0.000000   0.000000   0.000000   0.000000   0.000000
    40  C   -0.000020  -0.000004  -0.000000  -0.000000  -0.000000   0.000000
    41  H    0.000000  -0.000001   0.000000   0.000000   0.000000  -0.000000
    42  H    0.000000  -0.000001   0.000000   0.000000   0.000000  -0.000000
    43  H    0.000015   0.000000   0.000000   0.000000   0.000000  -0.000000
    44  Co   0.017456  -0.010256  -0.001875   0.000948  -0.001875  -0.010256
               7          8          9         10         11         12
     1  C   -0.001027  -0.000156  -0.001027  -0.000303   0.006857   0.000077
     2  C    0.000508   0.000008  -0.000102  -0.000018  -0.000782   0.000000
     3  C    0.004751  -0.000040  -0.000042   0.000001   0.000006   0.000000
     4  C    0.001975   0.000435   0.001975   0.000018   0.000024  -0.000000
     5  C   -0.000042  -0.000040   0.004751   0.000418  -0.000165  -0.000007
     6  C   -0.000102   0.000008   0.000508   0.000236  -0.006263   0.000018
     7  H   -0.009547  -0.000165  -0.000026  -0.000000   0.000000  -0.000000
     8  H   -0.000165  -0.004190  -0.000165  -0.000000   0.000000   0.000000
     9  H   -0.000026  -0.000165  -0.009547  -0.000135   0.000016   0.000001
    10  C   -0.000000  -0.000000  -0.000135  -0.004344   0.001700  -0.002125
    11  C    0.000000   0.000000   0.000016   0.001700   0.205233  -0.002283
    12  C   -0.000000   0.000000   0.000001  -0.002125  -0.002283  -0.028764
    13  C    0.000000   0.000000   0.000178   0.004474   0.000262   0.000605
    14  C    0.000000   0.000000   0.000001   0.000918   0.000553  -0.000458
    15  C    0.000000   0.000000   0.000005  -0.000770  -0.000027   0.000234
    16  H   -0.000000  -0.000000  -0.000184  -0.000186   0.000000  -0.000006
    17  C   -0.000000  -0.000000  -0.000000   0.000135  -0.000013  -0.000219
    18  H   -0.000000  -0.000000  -0.000000  -0.000011  -0.000003  -0.000082
    19  H   -0.000000  -0.000000  -0.000000   0.000001  -0.000000  -0.000008
    20  H    0.000000   0.000000   0.000000  -0.000004   0.000000   0.000014
    21  C   -0.000135  -0.000000  -0.000000  -0.000000   0.000001  -0.000000
    22  C    0.000016   0.000000   0.000000   0.000001   0.001414   0.000000
    23  C    0.000001   0.000000  -0.000000  -0.000000   0.000000   0.000000
    24  C    0.000178   0.000000   0.000000   0.000000   0.000000   0.000000
    25  C    0.000001   0.000000   0.000000   0.000000   0.000000   0.000000
    26  C    0.000005   0.000000   0.000000  -0.000000  -0.000000   0.000000
    27  H   -0.000184  -0.000000  -0.000000  -0.000000  -0.000000  -0.000000
    28  C   -0.000000  -0.000000  -0.000000  -0.000000  -0.000000  -0.000000
    29  H   -0.000000  -0.000000  -0.000000   0.000000   0.000000  -0.000000
    30  H   -0.000000  -0.000000  -0.000000  -0.000000  -0.000000   0.000000
    31  H    0.000000   0.000000   0.000000   0.000000  -0.000000  -0.000000
    32  N   -0.000726  -0.000002  -0.000002  -0.000000  -0.000050  -0.000000
    33  N    0.000003   0.000000   0.000000   0.000000  -0.000002   0.000000
    34  N   -0.000002  -0.000002  -0.000726  -0.001289  -0.032623   0.001566
    35  N    0.000000   0.000000   0.000003  -0.000724  -0.040962   0.008911
    36  C    0.000000   0.000000   0.000000  -0.000028   0.001136   0.000375
    37  H   -0.000000  -0.000000  -0.000000   0.000003   0.000417  -0.000165
    38  H   -0.000000  -0.000000  -0.000000   0.000003   0.000418  -0.000165
    39  H   -0.000000  -0.000000  -0.000000   0.000001  -0.000789  -0.000066
    40  C    0.000000   0.000000   0.000000   0.000000   0.000000  -0.000000
    41  H   -0.000000  -0.000000  -0.000000   0.000000   0.000000  -0.000000
    42  H   -0.000000  -0.000000  -0.000000   0.000000   0.000000  -0.000000
    43  H   -0.000000  -0.000000  -0.000000  -0.000000  -0.000000   0.000000
    44  Co   0.000402   0.000038   0.000402   0.001417   0.059138   0.000060
              13         14         15         16         17         18
     1  C    0.000015   0.000000  -0.000000  -0.000002  -0.000000   0.000000
     2  C    0.000000   0.000000   0.000000  -0.000000  -0.000000  -0.000000
     3  C   -0.000000  -0.000000   0.000000  -0.000000   0.000000   0.000000
     4  C    0.000002  -0.000000  -0.000000   0.000003  -0.000000   0.000000
     5  C   -0.000282  -0.000001   0.000002   0.000089   0.000000   0.000000
     6  C   -0.000385  -0.000019   0.000006   0.000064   0.000002   0.000000
     7  H    0.000000   0.000000   0.000000  -0.000000  -0.000000  -0.000000
     8  H    0.000000   0.000000   0.000000  -0.000000  -0.000000  -0.000000
     9  H    0.000178   0.000001   0.000005  -0.000184  -0.000000  -0.000000
    10  C    0.004474   0.000918  -0.000770  -0.000186   0.000135  -0.000011
    11  C    0.000262   0.000553  -0.000027   0.000000  -0.000013  -0.000003
    12  C    0.000605  -0.000458   0.000234  -0.000006  -0.000219  -0.000082
    13  C    0.018819   0.000980  -0.009504   0.000257  -0.001120  -0.000005
    14  C    0.000980   0.052550  -0.002176  -0.000001  -0.006368   0.000087
    15  C   -0.009504  -0.002176   0.031398   0.000005   0.005783  -0.000003
[...]
              Bcc     0.0089     1.191     0.425     0.397  0.7851  0.6194  0.0000
 
              Baa    -0.0040    -2.122    -0.757    -0.708 -0.0226  0.3416  0.9396
    41 H(1)   Bbb    -0.0025    -1.356    -0.484    -0.452 -0.6438  0.7140 -0.2750
              Bcc     0.0065     3.478     1.241     1.160  0.7648  0.6111 -0.2038
 
              Baa    -0.0040    -2.121    -0.757    -0.708  0.0227 -0.3416  0.9396
    42 H(1)   Bbb    -0.0025    -1.355    -0.484    -0.452 -0.6438  0.7140  0.2752
              Bcc     0.0065     3.477     1.241     1.160  0.7649  0.6111  0.2037
 
              Baa    -0.0078    -4.178    -1.491    -1.394  0.0002 -0.0003  1.0000
    43 H(1)   Bbb    -0.0067    -3.593    -1.282    -1.199  0.7432 -0.6691 -0.0004
              Bcc     0.0146     7.771     2.773     2.592  0.6691  0.7432  0.0001
 
              Baa    -0.7320   -92.432   -32.982   -30.832  1.0000 -0.0000  0.0000
    44 Co(59) Bbb    -0.1616   -20.413    -7.284    -6.809  0.0000  1.0000 -0.0000
              Bcc     0.8936   112.845    40.266    37.641 -0.0000  0.0000  1.0000
 

 ---------------------------------------------------------------------------------

   1 Symmetry operations used in ECPInt.
 ECPInt:  NShTT=   11781 NPrTT=   71406 LenC2=    9496 LenP2D=   31942.
 LDataN:  DoStor=T MaxTD1= 7 Len=  274
 Calling FoFJK, ICntrl=      2127 FMM=F ISym2X=0 I1Cent= 0 IOpClX= 1 NMat=1 NMatS=1 NMatT=0.
 -------------------------------------------------------------------
 Center     Atomic                   Forces (Hartrees/Bohr)
 Number     Number              X              Y              Z
 -------------------------------------------------------------------
      1        6          -0.000009600   -0.071436198    0.000003113
      2        6           0.053204007    0.031649099   -0.000000098
      3        6          -0.004716142    0.002191119   -0.000000024
      4        6           0.000010926    0.001186190    0.000000763
      5        6           0.004696788    0.002186430   -0.000000098
      6        6          -0.053188471    0.031659542   -0.000000709
      7        1          -0.000847607    0.003508708    0.000000087
      8        1          -0.000000835    0.000074717   -0.000001086
      9        1           0.000853431    0.003512353   -0.000000121
     10        6          -0.009519693   -0.006117951    0.000002167
     11        6           0.000592575    0.003961538   -0.000008868
     12        6           0.010578451    0.005563252    0.000000484
     13        6           0.009231118    0.004178561   -0.000000661
     14        6           0.000429225    0.003610656   -0.000000048
     15        6          -0.009838046    0.005051433    0.000000367
     16        1          -0.000345859    0.000056735   -0.000000419
     17        6          -0.000310018   -0.008365676   -0.000000146
     18        1           0.000012673   -0.000299836   -0.000000047
     19        1           0.000124457    0.000322891   -0.000000343
     20        1          -0.000333189   -0.000262164    0.000000169
     21        6           0.009533538   -0.006195062    0.000001662
     22        6          -0.000589130    0.003963432   -0.000011037
     23        6          -0.010513004    0.005607972    0.000000465
     24        6          -0.009227150    0.004248574   -0.000000265
     25        6          -0.000469021    0.003559058   -0.000000451
     26        6           0.009810781    0.004977134   -0.000000216
     27        1           0.000339423    0.000035852   -0.000000252
     28        6           0.000337203   -0.008292576   -0.000000152
     29        1          -0.000004728   -0.000282190   -0.000000471
     30        1          -0.000130512    0.000336257   -0.000000264
     31        1           0.000321041   -0.000267833    0.000000156
     32        7          -0.016932483   -0.045809664    0.000002595
     33        7           0.020917379    0.014939128    0.000007585
     34        7           0.016919663   -0.045822372    0.000000889
     35        7          -0.020941954    0.014939361    0.000005374
     36        6          -0.000049418   -0.007072688   -0.000001775
     37        1           0.000523711    0.001862031    0.000517042
     38        1           0.000522860    0.001862519   -0.000517059
     39        1           0.000368826    0.001142475    0.000001059
     40        6           0.000056989   -0.007073935   -0.000001758
     41        1          -0.000523198    0.001862783   -0.000516353
     42        1          -0.000524450    0.001862424    0.000516097
     43        1          -0.000371468    0.001142630    0.000001227
     44       27           0.000000910    0.046243292    0.000001420
 -------------------------------------------------------------------
 Cartesian Forces:  Max     0.071436198 RMS     0.013023526

 GradGradGradGradGradGradGradGradGradGradGradGradGradGradGradGradGradGrad
 Berny optimization.
 Search for a local minimum.
 Step number   1 out of a maximum of    2
 All quantities printed in internal units (Hartrees-Bohrs-Radians)
 Second derivative matrix not updated -- first step.
 ITU=  0
     Eigenvalues ---    0.00054   0.00055   0.00196   0.00240   0.00243
     Eigenvalues ---    0.00379   0.00437   0.00607   0.00644   0.00655
     Eigenvalues ---    0.00665   0.00811   0.00841   0.01316   0.01551
     Eigenvalues ---    0.01791   0.02014   0.02039   0.02538   0.02542
     Eigenvalues ---    0.03036   0.03087   0.04096   0.04196   0.04391
     Eigenvalues ---    0.04478   0.04665   0.05368   0.05520   0.06072
     Eigenvalues ---    0.06133   0.06893   0.06927   0.07033   0.07056
     Eigenvalues ---    0.07059   0.07253   0.07686   0.07755   0.09573
     Eigenvalues ---    0.09804   0.10065   0.10326   0.11452   0.11878
     Eigenvalues ---    0.11937   0.12061   0.12180   0.12798   0.13320
     Eigenvalues ---    0.13330   0.13403   0.13613   0.14680   0.15350
     Eigenvalues ---    0.15372   0.15856   0.19255   0.19707   0.19975
     Eigenvalues ---    0.20949   0.21868   0.23972   0.24333   0.28478
     Eigenvalues ---    0.29418   0.29446   0.30145   0.30601   0.31506
     Eigenvalues ---    0.31695   0.34612   0.35300   0.36285   0.37029
     Eigenvalues ---    0.37445   0.41046   0.41516   0.44237   0.46639
     Eigenvalues ---    0.48052   0.48281   0.49267   0.50836   0.51116
     Eigenvalues ---    0.53073   0.53494   0.53683   0.59756   0.62496
     Eigenvalues ---    0.68460   0.71264   0.72567   0.73659   0.86442
     Eigenvalues ---    0.90109   0.90656   0.91008   0.92622   0.94122
     Eigenvalues ---    0.94997   0.96683   0.99708   1.03847   1.12050
     Eigenvalues ---    1.15481   1.15641   1.18102   1.20460   1.23770
     Eigenvalues ---    1.30324   1.37687   1.37753   1.45225   1.46678
     Eigenvalues ---    1.49209   1.50388   1.52905   1.60145   1.63681
     Eigenvalues ---    1.65145   1.66217   1.77365   1.78499   1.83324
     Eigenvalues ---    1.86992
 Quadratic step=6.591D-01 exceeds max=3.000D-01 adjusted using Lamda=-2.719D-02.
 Angle between NR and scaled steps=  32.00 degrees.
 Angle between quadratic step and forces=  51.11 degrees.
 Linear search not attempted -- first point.
 B after Tr=     0.000001   -0.000714   -0.000001
         Rot=    1.000000   -0.000000   -0.000000   -0.000000 Ang=  -0.00 deg.
 Variable       Old X    -DE/DX   Delta X   Delta X   Delta X     New X
                                 (Linear)    (Quad)   (Total)
    X1        0.00001  -0.00001   0.00000  -0.00001  -0.00001   0.00001
    Y1        1.51729  -0.07144   0.00000  -0.14190  -0.14262   1.37467
    Z1        0.00016   0.00000   0.00000   0.00000   0.00000   0.00016
    X2       -2.43221   0.05320   0.00000   0.07825   0.07825  -2.35396
    Y2        2.56341   0.03165   0.00000  -0.02378  -0.02450   2.53891
    Z2        0.00007  -0.00000   0.00000   0.00001   0.00001   0.00008
    X3       -2.35703  -0.00472   0.00000   0.02209   0.02210  -2.33493
    Y3        5.20442   0.00219   0.00000  -0.00890  -0.00961   5.19481
    Z3       -0.00001  -0.00000   0.00000   0.00001   0.00001  -0.00000
    X4       -0.00000   0.00001   0.00000   0.00001   0.00001   0.00000
    Y4        6.42377   0.00119   0.00000   0.01352   0.01281   6.43657
    Z4       -0.00001   0.00000   0.00000   0.00000   0.00000  -0.00000
    X5        2.35705   0.00470   0.00000  -0.02211  -0.02211   2.33494
    Y5        5.20442   0.00219   0.00000  -0.00890  -0.00961   5.19481
    Z5        0.00006  -0.00000   0.00000   0.00000   0.00001   0.00007
    X6        2.43220  -0.05319   0.00000  -0.07824  -0.07824   2.35396
    Y6        2.56341   0.03166   0.00000  -0.02377  -0.02449   2.53892
    Z6        0.00013  -0.00000   0.00000   0.00000   0.00000   0.00013
    X7       -4.07014  -0.00085   0.00000   0.01389   0.01389  -4.05624
    Y7        6.32318   0.00351   0.00000  -0.00588  -0.00659   6.31659
    Z7       -0.00009   0.00000   0.00000   0.00001   0.00001  -0.00008
    X8        0.00001  -0.00000   0.00000   0.00000   0.00000   0.00001
    Y8        8.47682   0.00007   0.00000   0.01277   0.01206   8.48888
    Z8       -0.00003  -0.00000   0.00000  -0.00002  -0.00001  -0.00004
    X9        4.07014   0.00085   0.00000  -0.01389  -0.01389   4.05625
    Y9        6.32318   0.00351   0.00000  -0.00587  -0.00659   6.31659
    Z9        0.00006  -0.00000   0.00000  -0.00000   0.00000   0.00006
   X10        7.01019  -0.00952   0.00000  -0.03952  -0.03952   6.97067
   Y10        1.10245  -0.00612   0.00000  -0.01136  -0.01208   1.09037
   Z10       -0.00008   0.00000   0.00000   0.00001   0.00001  -0.00007
   X11        3.65850   0.00059   0.00000  -0.04205  -0.04204   3.61645
   Y11       -1.72705   0.00396   0.00000   0.00593   0.00522  -1.72183
   Z11        0.00027  -0.00001   0.00000  -0.00004  -0.00004   0.00022
   X12        7.95288   0.01058   0.00000  -0.02399  -0.02399   7.92888
   Y12       -1.40179   0.00556   0.00000   0.00768   0.00696  -1.39483
   Z12       -0.00019   0.00000   0.00000   0.00001   0.00001  -0.00017
   X13        8.63883   0.00923   0.00000  -0.03134  -0.03134   8.60749
   Y13        3.14194   0.00418   0.00000   0.00154   0.00082   3.14276
   Z13       -0.00014  -0.00000   0.00000   0.00000   0.00000  -0.00014
   X14       10.53801   0.00043   0.00000  -0.02585  -0.02585  10.51217
   Y14       -1.87969   0.00361   0.00000   0.00197   0.00126  -1.87843
   Z14       -0.00038  -0.00000   0.00000   0.00001   0.00001  -0.00037
   X15       11.25355  -0.00984   0.00000  -0.04168  -0.04168  11.21187
   Y15        2.65477   0.00505   0.00000   0.00163   0.00092   2.65569
   Z15       -0.00034   0.00000   0.00000  -0.00000  -0.00000  -0.00034
   X16        7.95229  -0.00035   0.00000  -0.02677  -0.02677   7.92552
   Y16        5.07038   0.00006   0.00000   0.00276   0.00204   5.07243
   Z16       -0.00001  -0.00000   0.00000  -0.00001  -0.00001  -0.00002
   X17       12.17668  -0.00031   0.00000  -0.02990  -0.02990  12.14677
   Y17        0.20273  -0.00837   0.00000  -0.00637  -0.00708   0.19565
   Z17       -0.00047  -0.00000   0.00000   0.00001   0.00001  -0.00046
   X18       11.26346   0.00001   0.00000  -0.02248  -0.02248  11.24099
   Y18       -3.79780  -0.00030   0.00000   0.00164   0.00092  -3.79688
   Z18       -0.00043  -0.00000   0.00000   0.00001   0.00001  -0.00043
   X19       12.55698   0.00012   0.00000  -0.03552  -0.03552  12.52145
   Y19        4.23790   0.00032   0.00000   0.00004  -0.00068   4.23722
   Z19       -0.00037  -0.00000   0.00000  -0.00001  -0.00001  -0.00038
   X20       14.20442  -0.00033   0.00000  -0.02836  -0.02836  14.17606
   Y20       -0.11879  -0.00026   0.00000  -0.00481  -0.00553  -0.12431
   Z20       -0.00062   0.00000   0.00000   0.00001   0.00000  -0.00061
   X21       -7.01019   0.00953   0.00000   0.03953   0.03954  -6.97065
   Y21        1.10250  -0.00620   0.00000  -0.01141  -0.01213   1.09037
   Z21       -0.00010   0.00000   0.00000   0.00002   0.00002  -0.00008
   X22       -3.65849  -0.00059   0.00000   0.04205   0.04205  -3.61644
   Y22       -1.72706   0.00396   0.00000   0.00593   0.00522  -1.72184
   Z22        0.00021  -0.00001   0.00000  -0.00004  -0.00004   0.00017
   X23       -7.95291  -0.01051   0.00000   0.02404   0.02404  -7.92887
   Y23       -1.40184   0.00561   0.00000   0.00770   0.00699  -1.39485
   Z23       -0.00016   0.00000   0.00000   0.00002   0.00002  -0.00014
   X24       -8.63882  -0.00923   0.00000   0.03134   0.03134  -8.60748
   Y24        3.14188   0.00425   0.00000   0.00157   0.00085   3.14273
   Z24       -0.00013  -0.00000   0.00000   0.00001   0.00001  -0.00012
   X25      -10.53797  -0.00047   0.00000   0.02583   0.02583 -10.51215
   Y25       -1.87967   0.00356   0.00000   0.00195   0.00124  -1.87843
   Z25       -0.00021  -0.00000   0.00000   0.00000   0.00000  -0.00020
   X26      -11.25352   0.00981   0.00000   0.04166   0.04166 -11.21186
   Y26        2.65480   0.00498   0.00000   0.00159   0.00087   2.65568
   Z26       -0.00021  -0.00000   0.00000  -0.00000  -0.00000  -0.00021
   X27       -7.95228   0.00034   0.00000   0.02675   0.02675  -7.92553
   Y27        5.07039   0.00004   0.00000   0.00273   0.00202   5.07241
   Z27       -0.00005  -0.00000   0.00000  -0.00000  -0.00000  -0.00006
   X28      -12.17669   0.00034   0.00000   0.02992   0.02992 -12.14677
   Y28        0.20266  -0.00829   0.00000  -0.00632  -0.00703   0.19563
   Z28       -0.00025  -0.00000   0.00000  -0.00000  -0.00000  -0.00025
   X29      -11.26346  -0.00000   0.00000   0.02248   0.02248 -11.24098
   Y29       -3.79783  -0.00028   0.00000   0.00166   0.00095  -3.79688
   Z29       -0.00018  -0.00000   0.00000  -0.00001  -0.00001  -0.00019
   X30      -12.55697  -0.00013   0.00000   0.03550   0.03550 -12.52147
   Y30        4.23786   0.00034   0.00000   0.00004  -0.00067   4.23719
   Z30       -0.00021  -0.00000   0.00000  -0.00001  -0.00001  -0.00022
   X31      -14.20440   0.00032   0.00000   0.02834   0.02834 -14.17606
   Y31       -0.11881  -0.00027   0.00000  -0.00480  -0.00551  -0.12432
   Z31       -0.00029   0.00000   0.00000  -0.00000  -0.00000  -0.00029
   X32       -4.38127  -0.01693   0.00000   0.03393   0.03393  -4.34734
   Y32        0.88701  -0.04581   0.00000  -0.04908  -0.04979   0.83722
   Z32        0.00008   0.00000   0.00000   0.00000   0.00000   0.00009
   X33       -5.93732   0.02092   0.00000   0.05596   0.05596  -5.88136
   Y33       -3.03212   0.01494   0.00000   0.02483   0.02411  -3.00801
   Z33       -0.00007   0.00001   0.00000   0.00002   0.00002  -0.00006
   X34        4.38129   0.01692   0.00000  -0.03393  -0.03393   4.34736
   Y34        0.88703  -0.04582   0.00000  -0.04908  -0.04979   0.83724
   Z34        0.00017   0.00000   0.00000  -0.00001  -0.00001   0.00017
   X35        5.93735  -0.02094   0.00000  -0.05597  -0.05597   5.88138
   Y35       -3.03211   0.01494   0.00000   0.02483   0.02411  -3.00800
   Z35       -0.00003   0.00001   0.00000   0.00000   0.00000  -0.00002
   X36        6.09604  -0.00005   0.00000  -0.02580  -0.02580   6.07024
   Y36       -5.72976  -0.00707   0.00000   0.01495   0.01424  -5.71552
   Z36        0.00003  -0.00000   0.00000   0.00000  -0.00000   0.00003
   X37        7.07228   0.00052   0.00000  -0.00635  -0.00635   7.06593
   Y37       -6.44135   0.00186   0.00000   0.03869   0.03798  -6.40338
   Z37       -1.68627   0.00052   0.00000   0.00241   0.00240  -1.68386
   X38        7.07128   0.00052   0.00000  -0.00636  -0.00636   7.06492
   Y38       -6.44144   0.00186   0.00000   0.03869   0.03797  -6.40346
   Z38        1.68688  -0.00052   0.00000  -0.00239  -0.00240   1.68448
   X39        4.17755   0.00037   0.00000  -0.01538  -0.01538   4.16217
   Y39       -6.49525   0.00114   0.00000  -0.00196  -0.00267  -6.49792
   Z39       -0.00060   0.00000   0.00000   0.00000   0.00000  -0.00060
   X40       -6.09603   0.00006   0.00000   0.02581   0.02581  -6.07022
   Y40       -5.72977  -0.00707   0.00000   0.01495   0.01424  -5.71553
   Z40        0.00009  -0.00000   0.00000   0.00000   0.00000   0.00010
   X41       -7.07113  -0.00052   0.00000   0.00636   0.00636  -7.06476
   Y41       -6.44139   0.00186   0.00000   0.03869   0.03797  -6.40342
   Z41        1.68704  -0.00052   0.00000  -0.00239  -0.00239   1.68465
   X42       -7.07239  -0.00052   0.00000   0.00635   0.00635  -7.06604
   Y42       -6.44142   0.00186   0.00000   0.03870   0.03799  -6.40343
   Z42       -1.68610   0.00052   0.00000   0.00241   0.00240  -1.68369
   X43       -4.17753  -0.00037   0.00000   0.01537   0.01537  -4.16216
   Y43       -6.49526   0.00114   0.00000  -0.00196  -0.00268  -6.49794
   Z43       -0.00067   0.00000   0.00000   0.00001   0.00000  -0.00066
   X44        0.00000   0.00000   0.00000   0.00000   0.00000   0.00001
   Y44       -2.39177   0.04624   0.00000   0.09059   0.08987  -2.30190
   Z44        0.00027   0.00000   0.00000  -0.00004  -0.00004   0.00023
         Item               Value     Threshold  Converged?
 Maximum Force            0.071436     0.000450     NO 
 RMS     Force            0.013024     0.000300     NO 
 Maximum Displacement     0.142618     0.001800     NO 
 RMS     Displacement     0.026147     0.001200     NO 
 Predicted change in Energy=-1.533843D-02
 GradGradGradGradGradGradGradGradGradGradGradGradGradGradGradGradGradGrad

 Unable to Open any file for archive entry.
 1\1\GINC-X11P1N5\Force\UPBE1PBE\GenECP\C22H17Co1N4(3)\MAYUMIAO\17-Jul-
 2024\0\\# pbe1pbe em=gd3bj genecp g09default scf=(xqc,maxcycle=64) for
 ce guess=read nosymm\\Title Card\\0,3\C,0.00000603,0.80291371,0.000082
 28\C,-1.28706788,1.35649878,0.0000396\C,-1.24728542,2.75405991,-0.0000
 0762\C,-0.00000224,3.39931004,-0.0000037\C,1.24729754,2.75406252,0.000
 03212\C,1.28706549,1.35649563,0.00007013\H,-2.15382348,3.34608367,-0.0
 0004795\H,0.0000029,4.48573989,-0.00001418\H,2.15382629,3.34608095,0.0
 0003033\C,3.70963174,0.5833916,-0.0000416\C,1.93599291,-0.91391639,0.0
 0014078\C,4.20848024,-0.74179645,-0.00009955\C,4.57146953,1.66264361,-
 0.00007523\C,5.57647663,-0.99468931,-0.00020076\C,5.95512157,1.4048423
 ,-0.00017975\H,4.20816908,2.68313137,-0.00000553\C,6.44362036,0.107280
 94,-0.00024757\H,5.96036869,-2.00971076,-0.00022856\H,6.64486631,2.242
 59756,-0.00019784\H,7.516655,-0.06285907,-0.00032708\C,-3.7096326,0.58
 341616,-0.00005285\C,-1.93599199,-0.91391899,0.00011195\C,-4.20850123,
 -0.74181981,-0.00008237\C,-4.57146911,1.66261006,-0.00006845\C,-5.5764
 557,-0.99467835,-0.00010929\C,-5.95510801,1.40486119,-0.00010913\H,-4.
 20816596,2.68313301,-0.00002863\C,-6.44362711,0.10724251,-0.00013023\H
 ,-5.96036404,-2.00972656,-0.00009375\H,-6.64486131,2.24258085,-0.00011
 111\H,-7.51664563,-0.06286897,-0.00015224\N,-2.31846966,0.46938635,0.0
 0004277\N,-3.1418925,-1.60452902,-0.00003812\N,2.31847808,0.46939392,0
 .0000926\N,3.14190844,-1.60452495,-0.00001351\C,3.22588447,-3.03205762
 ,0.00001525\H,3.74248804,-3.4086178,-0.89233337\H,3.74195931,-3.408660
 68,0.89265633\H,2.21066313,-3.43713778,-0.0003162\C,-3.22587908,-3.032
 06227,0.00004981\H,-3.74188028,-3.40863638,0.89274444\H,-3.74255024,-3
 .40865409,-0.89224353\H,-2.21065359,-3.43714376,-0.00035255\Co,0.00000
 056,-1.26567018,0.0001435\\Version=ES64L-G16RevC.01\HF=-1212.1116835\S
 2=2.347304\S2-1=0.\S2A=2.00899\RMSD=2.619e-09\RMSF=1.302e-02\Dipole=-0
 .0001783,-1.3307828,-0.0000145\Quadrupole=8.7581066,10.7861615,-19.544
 2681,-0.000147,-0.0003565,-0.0001961\PG=C01 [X(C22H17Co1N4)]\\@
 The archive entry for this job was punched.


 THE WHOLE OF SCIENCE IS NOTHING MORE THAN A REFINEMENT OF EVERYDAY THINKING.
                                                              -- A. EINSTEIN
 Job cpu time:       0 days  0 hours 51 minutes 35.6 seconds.
 Elapsed time:       0 days  0 hours  0 minutes 56.1 seconds.
 File lengths (MBytes):  RWF=    184 Int=      0 D2E=      0 Chk=     72 Scr=      1
 Normal termination of Gaussian 16 at Wed Jul 17 21:28:57 2024.
