 Entering Gaussian System, Link 0=g16
 Input=JOBS/38_B.gjf
 Output=JOBS/38_B.log
 Initial command:
 /data/app/gaussian/C01-avx2//g16/l1.exe "/tmp/Gau-2102666.inp" -scrdir="/tmp/"
 Entering Link 1 = /data/app/gaussian/C01-avx2//g16/l1.exe PID=   2102667.
  
 Copyright (c) 1988-2019, Gaussian, Inc.  All Rights Reserved.
  
 This is part of the Gaussian(R) 16 program.  It is based on
 the Gaussian(R) 09 system (copyright 2009, Gaussian, Inc.),
 the Gaussian(R) 03 system (copyright 2003, Gaussian, Inc.),
 the Gaussian(R) 98 system (copyright 1998, Gaussian, Inc.),
 the Gaussian(R) 94 system (copyright 1995, Gaussian, Inc.),
 the Gaussian 92(TM) system (copyright 1992, Gaussian, Inc.),
 the Gaussian 90(TM) system (copyright 1990, Gaussian, Inc.),
 the Gaussian 88(TM) system (copyright 1988, Gaussian, Inc.),
 the Gaussian 86(TM) system (copyright 1986, Carnegie Mellon
 University), and the Gaussian 82(TM) system (copyright 1983,
 Carnegie Mellon University). Gaussian is a federally registered
 trademark of Gaussian, Inc.
  
 This software contains proprietary and confidential information,
 including trade secrets, belonging to Gaussian, Inc.
  
 This software is provided under written license and may be
 used, copied, transmitted, or stored only in accord with that
 written license.
  
 The following legend is applicable only to US Government
 contracts under FAR:
  
                    RESTRICTED RIGHTS LEGEND
  
 Use, reproduction and disclosure by the US Government is
 subject to restrictions as set forth in subparagraphs (a)
 and (c) of the Commercial Computer Software - Restricted
 Rights clause in FAR 52.227-19.
  
 Gaussian, Inc.
 340 Quinnipiac St., Bldg. 40, Wallingford CT 06492
  
  
 ---------------------------------------------------------------
 Warning -- This program may not be used in any manner that
 competes with the business of Gaussian, Inc. or will provide
 assistance to any competitor of Gaussian, Inc.  The licensee
 of this program is prohibited from giving any competitor of
 Gaussian, Inc. access to this program.  By using this program,
 the user acknowledges that Gaussian, Inc. is engaged in the
 business of creating and licensing software in the field of
 computational chemistry and represents and warrants to the
 licensee that it is not a competitor of Gaussian, Inc. and that
 it will not use this program in any manner prohibited above.
 ---------------------------------------------------------------
  

 Cite this work as:
 Gaussian 16, Revision C.01,
 M. J. Frisch, G. W. Trucks, H. B. Schlegel, G. E. Scuseria, 
 M. A. Robb, J. R. Cheeseman, G. Scalmani, V. Barone, 
 G. A. Petersson, H. Nakatsuji, X. Li, M. Caricato, A. V. Marenich, 
 J. Bloino, B. G. Janesko, R. Gomperts, B. Mennucci, H. P. Hratchian, 
 J. V. Ortiz, A. F. Izmaylov, J. L. Sonnenberg, D. Williams-Young, 
 F. Ding, F. Lipparini, F. Egidi, J. Goings, B. Peng, A. Petrone, 
 T. Henderson, D. Ranasinghe, V. G. Zakrzewski, J. Gao, N. Rega, 
 G. Zheng, W. Liang, M. Hada, M. Ehara, K. Toyota, R. Fukuda, 
 J. Hasegawa, M. Ishida, T. Nakajima, Y. Honda, O. Kitao, H. Nakai, 
 T. Vreven, K. Throssell, J. A. Montgomery, Jr., J. E. Peralta, 
 F. Ogliaro, M. J. Bearpark, J. J. Heyd, E. N. Brothers, K. N. Kudin, 
 V. N. Staroverov, T. A. Keith, R. Kobayashi, J. Normand, 
 K. Raghavachari, A. P. Rendell, J. C. Burant, S. S. Iyengar, 
 J. Tomasi, M. Cossi, J. M. Millam, M. Klene, C. Adamo, R. Cammi, 
 J. W. Ochterski, R. L. Martin, K. Morokuma, O. Farkas, 
 J. B. Foresman, and D. J. Fox, Gaussian, Inc., Wallingford CT, 2019.
 
 ******************************************
 Gaussian 16:  ES64L-G16RevC.01  3-Jul-2019
                17-Jul-2024 
 ******************************************
 %chk=b.chk
 %nprocshared=56
 Will use up to   56 processors via shared memory.
 %mem=96gb
 ----------------------------------------------------------------------
 # pbe1pbe em=gd3bj genecp g09default scf=(xqc,maxcycle=64) force guess
 =read nosymm
 ----------------------------------------------------------------------
 1/10=7,30=1,38=1,158=3,167=1/1,3;
 2/12=2,15=1,17=6,18=5,40=1/2;
 3/5=7,11=2,16=1,17=8,25=1,27=10,30=1,71=1,74=-13,75=-4,116=-2,124=41,158=3/1,2,3;
 4/5=1,60=-1/1;
 5/5=2,7=64,8=3,13=1,38=6,87=10/2,8;
 6/7=2,8=2,9=2,10=2,28=1,87=10/1;
 7/29=1,30=1,87=10/1,2,3,16;
 1/10=7,30=1,158=3,167=1/3;
 99//99;
 Using 2006 physical constants.
 ----------
 Title Card
 ----------
 Symbolic Z-matrix:
 Charge =  0 Multiplicity = 3
 6                     0.        0.79832   0.00008 
 6                    -1.28728   1.35443   0.00004 
 6                    -1.24727   2.75095  -0.00001 
 6                     0.        3.39474  0. 
 6                     1.24727   2.75095   0.00003 
 6                     1.28729   1.35444   0.00007 
 1                    -2.15252   3.34538  -0.00005 
 1                     0.        4.48126  -0.00002 
 1                     2.15252   3.34538   0.00003 
 6                     3.7123    0.58391  -0.00004 
 6                     1.93808  -0.91356   0.00014 
 6                     4.21182  -0.74087  -0.0001 
 6                     4.57516   1.66282  -0.00008 
 6                     5.57995  -0.994    -0.0002 
 6                     5.959     1.40514  -0.00018 
 1                     4.21419   2.68401  -0.00001 
 6                     6.44737   0.10791  -0.00025 
 1                     5.96616  -2.00799  -0.00023 
 1                     6.64862   2.24268  -0.0002 
 1                     7.52063  -0.06162  -0.00033 
 6                    -3.71229   0.58388  -0.00005 
 6                    -1.93808  -0.91356   0.00011 
 6                    -4.2118   -0.74087  -0.00008 
 6                    -4.57515   1.66283  -0.00007 
 6                    -5.57996  -0.99403  -0.00011 
 6                    -5.95901   1.40511  -0.00011 
 1                    -4.21419   2.684    -0.00003 
 6                    -6.44736   0.10792  -0.00013 
 1                    -5.96615  -2.00799  -0.00009 
 1                    -6.64862   2.24267  -0.00011 
 1                    -7.52062  -0.06163  -0.00015 
 7                    -2.32093   0.46973   0.00005 
 7                    -3.14498  -1.605    -0.00004 
 7                     2.32093   0.46974   0.0001 
 7                     3.14497  -1.605    -0.00001 
 6                     3.23063  -3.0312    0.00002 
 1                     3.74796  -3.40757  -0.89219 
 1                     3.74741  -3.40762   0.89252 
 1                     2.21607  -3.43835  -0.00033 
 6                    -3.23062  -3.03121   0.00005 
 1                    -3.74733  -3.40759   0.89261 
 1                    -3.74802  -3.4076   -0.8921 
 1                    -2.21607  -3.43836  -0.00036 
 27                   0.        -1.25853   0.00014 
 

 GradGradGradGradGradGradGradGradGradGradGradGradGradGradGradGradGradGrad
 Berny optimization.
 Initialization pass.
 Trust Radius=3.00D-01 FncErr=1.00D-07 GrdErr=1.00D-07 EigMax=2.50D+02 EigMin=1.00D-04
 Number of steps in this run=      2 maximum allowed number of steps=      2.
 GradGradGradGradGradGradGradGradGradGradGradGradGradGradGradGradGradGrad

                          Input orientation:                          
 ---------------------------------------------------------------------
 Center     Atomic      Atomic             Coordinates (Angstroms)
 Number     Number       Type             X           Y           Z
 ---------------------------------------------------------------------
      1          6           0        0.000000    0.798323    0.000085
      2          6           0       -1.287284    1.354433    0.000043
      3          6           0       -1.247270    2.750955   -0.000005
      4          6           0        0.000004    3.394741   -0.000004
      5          6           0        1.247270    2.750954    0.000033
      6          6           0        1.287294    1.354436    0.000072
      7          1           0       -2.152518    3.345384   -0.000050
      8          1           0        0.000002    4.481261   -0.000018
      9          1           0        2.152524    3.345384    0.000025
     10          6           0        3.712299    0.583907   -0.000043
     11          6           0        1.938078   -0.913556    0.000141
     12          6           0        4.211818   -0.740872   -0.000100
     13          6           0        4.575157    1.662822   -0.000079
     14          6           0        5.579951   -0.994004   -0.000202
     15          6           0        5.959004    1.405138   -0.000183
     16          1           0        4.214191    2.684012   -0.000009
     17          6           0        6.447375    0.107913   -0.000249
     18          1           0        5.966159   -2.007987   -0.000226
     19          1           0        6.648622    2.242678   -0.000198
     20          1           0        7.520626   -0.061619   -0.000326
     21          6           0       -3.712291    0.583882   -0.000054
     22          6           0       -1.938076   -0.913557    0.000113
     23          6           0       -4.211796   -0.740867   -0.000084
     24          6           0       -4.575154    1.662833   -0.000072
     25          6           0       -5.579958   -0.994026   -0.000112
     26          6           0       -5.959006    1.405110   -0.000112
     27          1           0       -4.214192    2.684001   -0.000030
     28          6           0       -6.447364    0.107919   -0.000132
     29          1           0       -5.966149   -2.007992   -0.000093
     30          1           0       -6.648619    2.242669   -0.000112
     31          1           0       -7.520625   -0.061632   -0.000151
     32          7           0       -2.320926    0.469734    0.000051
     33          7           0       -3.144976   -1.605002   -0.000036
     34          7           0        2.320925    0.469735    0.000098
     35          7           0        3.144975   -1.604998   -0.000009
     36          6           0        3.230632   -3.031204    0.000017
     37          1           0        3.747959   -3.407565   -0.892191
     38          1           0        3.747414   -3.407616    0.892524
     39          1           0        2.216074   -3.438353   -0.000327
     40          6           0       -3.230621   -3.031210    0.000051
     41          1           0       -3.747334   -3.407589    0.892614
     42          1           0       -3.748023   -3.407601   -0.892100
     43          1           0       -2.216066   -3.438360   -0.000365
     44         27           0       -0.000000   -1.258533    0.000143
 ---------------------------------------------------------------------
                    Distance matrix (angstroms):
                    1          2          3          4          5
     1  C    0.000000
     2  C    1.402269   0.000000
     3  C    2.316992   1.397095   0.000000
     4  C    2.596418   2.412462   1.403622   0.000000
     5  C    2.316991   2.893827   2.494540   1.403614   0.000000
     6  C    1.402279   2.574579   2.893835   2.412460   1.397092
     7  H    3.334794   2.170833   1.082968   2.153088   3.451362
     8  H    3.682938   3.381444   2.132990   1.086520   2.132988
     9  H    3.334797   3.974439   3.451368   2.153085   1.082973
    10  C    3.718485   5.058611   5.412339   4.656385   3.282143
    11  C    2.585861   3.942935   4.855418   4.724146   3.729055
    12  C    4.484254   5.884763   6.480316   5.902768   4.580546
    13  C    4.656116   5.870547   5.923233   4.891990   3.501266
    14  C    5.860741   7.257691   7.786890   7.099076   5.726852
    15  C    5.989820   7.246465   7.330866   6.282371   4.900169
    16  H    4.616842   5.659860   5.461872   4.273699   2.967677
    17  C    6.484235   7.834460   8.135922   7.236838   5.833246
    18  H    6.593211   7.994893   8.641822   8.048880   6.701898
    19  H    6.803699   7.985461   7.912234   6.747693   5.425214
    20  H    7.569631   8.921014   9.207962   8.276846   6.874996
    21  C    3.718480   2.544486   3.282154   4.656401   5.412342
    22  C    2.585861   2.359515   3.729056   4.724150   4.855417
    23  C    4.484232   3.597645   4.580527   5.902755   6.480294
    24  C    4.656116   3.302302   3.501260   4.891992   5.923228
    25  C    5.860755   4.893087   5.726872   7.099102   7.786906
    26  C    5.989821   4.671997   4.900179   6.282391   7.330874
    27  H    4.616838   3.214738   2.967677   4.273711   5.461872
    28  C    6.484224   5.308504   5.833233   7.236833   8.135909
    29  H    6.593205   5.761743   6.701895   8.048883   8.641816
    30  H    6.803696   5.434416   5.425212   6.747701   7.912232
    31  H    7.569632   6.392165   6.875000   8.276858   9.207965
    32  N    2.344071   1.360554   2.521251   3.733951   4.235090
    33  N    3.958137   3.494177   4.751384   5.906635   6.185966
    34  N    2.344070   3.715086   4.235089   3.733943   2.521248
    35  N    3.958133   5.329461   6.185963   5.906626   4.751379
    36  C    5.010216   6.296458   7.313342   7.192338   6.112862
    37  H    5.703757   6.987588   7.979704   7.817579   6.706480
    38  H    5.703463   6.987262   7.979441   7.817401   6.706359
    39  H    4.781256   5.936693   7.092410   7.183463   6.264671
    40  C    5.010213   4.796918   6.112864   7.192342   7.313339
    41  H    5.703405   5.433727   6.706322   7.817353   7.979375
    42  H    5.703812   5.433979   6.706520   7.817635   7.979765
    43  H    4.781258   4.881956   6.264677   7.183470   7.092411
    44  Co   2.056856   2.912849   4.199009   4.653274   4.199008
                    6          7          8          9         10
     6  C    0.000000
     7  H    3.974441   0.000000
     8  H    3.381443   2.433837   0.000000
     9  H    2.170828   4.305041   2.433837   0.000000
    10  C    2.544477   6.482425   5.382426   3.171538   0.000000
    11  C    2.359514   5.905214   5.732381   4.264335   2.321692
    12  C    3.597660   7.563218   6.708954   4.575826   1.415824
    13  C    3.302294   6.934885   5.373606   2.949604   1.381515
    14  C    4.893063   8.866868   7.817566   5.529696   2.444980
    15  C    4.671985   8.340344   6.706133   4.272452   2.392092
    16  H    3.214732   6.400969   4.581429   2.165153   2.159245
    17  C    5.308507   9.189090   7.790686   5.378379   2.776187
    18  H    5.761741   9.724788   8.815065   6.572853   3.434793
    19  H    5.434409   8.869950   7.015368   4.629347   3.372464
    20  H    6.392154  10.255602   8.786213   6.358002   3.862650
    21  C    5.058617   3.171558   5.382442   6.482433   7.424590
    22  C    3.942944   4.264336   5.732383   5.905217   5.845437
    23  C    5.884750   4.575813   6.708939   7.563201   8.034071
    24  C    5.870554   2.949601   5.373602   6.934885   8.357389
    25  C    7.257715   5.529721   7.817591   8.866890   9.425280
    26  C    7.246478   4.272472   6.706153   8.340358   9.706107
    27  H    5.659867   2.165162   4.581438   6.400976   8.199979
    28  C    7.834458   5.378371   7.790677   9.189083  10.170806
    29  H    7.994896   6.572855   8.815065   9.724787  10.019495
    30  H    7.985467   4.629352   7.015373   8.869954  10.492860
    31  H    8.921025   6.358013   8.786223  10.255611  11.251457
    32  N    3.715098   2.880577   4.634550   5.317999   6.034305
    33  N    5.329474   5.048890   6.850802   7.250505   7.198162
    34  N    1.360547   5.317993   4.634546   2.880575   1.396050
    35  N    3.494170   7.250497   6.850796   5.048885   2.261230
    36  C    4.796916   8.345009   8.177659   6.467085   3.647057
    37  H    5.433936   9.011874   8.779335   6.995983   4.090116
    38  H    5.433765   9.011598   8.779186   6.995945   4.090252
    39  H    4.881952   8.068685   8.223823   6.784035   4.291534
    40  C    6.296463   6.467090   8.177661   8.345010   7.827720
    41  H    6.987202   6.995923   8.779139   9.011530   8.507349
    42  H    6.987660   6.996013   8.779388   9.011945   8.507896
    43  H    5.936701   6.784041   8.223828   8.068689   7.164086
    44  Co   2.912857   5.082262   5.739794   5.082264   4.144364
                   11         12         13         14         15
    11  C    0.000000
    12  C    2.280288   0.000000
    13  C    3.686721   2.431000   0.000000
    14  C    3.642761   1.391353   2.840481   0.000000
    15  C    4.641571   2.767312   1.407634   2.428901   0.000000
    16  H    4.257134   3.424885   1.083109   3.923404   2.163305
    17  C    4.623543   2.391265   2.433710   1.402371   1.386110
    18  H    4.174112   2.164091   3.925523   1.085044   3.413133
    19  H    5.670188   3.852218   2.153018   3.408543   1.084917
    20  H    5.647179   3.377809   3.413134   2.153035   2.142438
    21  C    5.845425   8.034083   8.357387   9.425258   9.706101
    22  C    3.876155   6.152319   7.004280   7.518458   8.230445
    23  C    6.152299   8.423615   9.109790   9.795019  10.394735
    24  C    7.004283   9.109812   9.150311  10.496901  10.537309
    25  C    7.518467   9.795048  10.496914  11.159909  11.785738
    26  C    8.230441  10.394754  10.537315  11.785724  11.918010
    27  H    7.126910   9.095461   8.848472  10.461976  10.253263
    28  C    8.447429  10.692923  11.131653  12.077687  12.474002
    29  H    7.979637  10.256540  11.162169  11.590539  12.403980
    30  H    9.148395  11.262798  11.238744  12.649663  12.635411
    31  H    9.496991  11.752089  12.218088  13.133712  13.559196
    32  N    4.478014   6.643969   6.998530   8.035321   8.332600
    33  N    5.129867   7.407371   8.383265   8.746294   9.588711
    34  N    1.435293   2.245228   2.550494   3.572643   3.756407
    35  N    1.390932   1.372905   3.567082   2.510463   4.120641
    36  C    2.480953   2.491656   4.882789   3.109580   5.208181
    37  H    3.208116   2.849955   5.214302   3.158658   5.370895
    38  H    3.207862   2.850258   5.214523   3.159221   5.371281
    39  H    2.540055   3.355503   5.620255   4.158186   6.121187
    40  C    5.585688   7.786884   9.108464   9.043030  10.204430
    41  H    6.272211   8.441352   9.786206   9.675782  10.870714
    42  H    6.272807   8.441930   9.786737   9.676365  10.871262
    43  H    4.861229   6.970950   8.493690   8.170236   9.502170
    44  Co   1.968542   4.243512   5.428295   5.586218   6.527241
                   16         17         18         19         20
    16  H    0.000000
    17  C    3.409310   0.000000
    18  H    5.008418   2.169931   0.000000
    19  H    2.474111   2.144230   4.305103   0.000000
    20  H    4.297790   1.086558   2.490927   2.463773   0.000000
    21  C    8.199980  10.170809  10.019490  10.492860  11.251449
    22  C    7.126914   8.447437   7.979644   9.148399   9.496992
    23  C    9.095442  10.692911  10.256528  11.262780  11.752069
    24  C    8.848469  11.131663  11.162177  11.238744  12.218086
    25  C   10.461994  12.077707  11.590553  12.649680  13.133723
    26  C   10.253270  12.474014  12.403983  12.635418  13.559196
    27  H    8.428383  10.968374  11.209563  10.871775  12.051738
    28  C   10.968364  12.894738  12.592561  13.268837  13.969019
    29  H   11.209560  12.592562  11.932308  13.311673  13.626499
    30  H   10.871772  13.268845  13.311675  13.297241  14.355391
    31  H   12.051741  13.969028  13.626505  14.355396  15.041251
    32  N    6.900057   8.775763   8.649560   9.143091   9.855886
    33  N    8.517804   9.744089   9.120042  10.522319  10.776692
    34  N    2.913328   4.142282   4.407589   4.676781   5.226780
    35  N    4.420275   3.720203   2.849821   5.203859   4.639865
    36  C    5.799231   4.494607   2.920630   6.284623   5.217517
    37  H    6.174194   4.521171   2.770348   6.413637   5.120918
    38  H    6.174337   4.521700   2.771063   6.414030   5.121524
    39  H    6.440173   5.520861   4.013612   7.205664   6.288132
    40  C    9.385574  10.174365   9.253526  11.198809  11.153824
    41  H   10.064307  10.820723   9.854339  11.865856  11.788121
    42  H   10.064812  10.821293   9.854932  11.866397  11.788694
    43  H    8.878719   9.361157   8.306309  10.528859  10.305608
    44  Co   5.770882   6.590586   6.013047   7.514164   7.615276
                   21         22         23         24         25
    21  C    0.000000
    22  C    2.321672   0.000000
    23  C    1.415791   2.280269   0.000000
    24  C    1.381545   3.686728   2.431008   0.000000
    25  C    2.444989   3.642770   1.391386   2.840515   0.000000
    26  C    2.392101   4.641562   2.767302   1.407646   2.428895
    27  H    2.159260   4.257127   3.424869   1.083088   3.923417
    28  C    2.776178   4.623536   2.391275   2.433706   1.402382
    29  H    3.434776   4.174106   2.164108   3.925535   1.085022
    30  H    3.372476   5.670183   3.852219   2.153014   3.408553
    31  H    3.862654   5.647178   3.377825   3.413148   2.153032
    32  N    1.396039   1.435294   2.245205   2.550496   3.572657
    33  N    2.261208   1.390936   1.372894   3.567093   2.510464
    34  N    6.034296   4.478012   6.643945   6.998528   8.035331
    35  N    7.198145   5.129864   7.407348   8.383264   8.746298
    36  C    7.827709   5.585694   7.786873   9.108473   9.043041
    37  H    8.507814   6.272741   8.441851   9.786676   9.676312
    38  H    8.507406   6.272283   8.441406   9.786282   9.675851
    39  H    7.164070   4.861231   6.970936   8.493696   8.170242
    40  C    3.647039   2.480952   2.491661   4.882807   3.109582
    41  H    4.090224   3.207829   2.850271   5.214533   3.159234
    42  H    4.090106   3.208147   2.849957   5.214323   3.158635
    43  H    4.291517   2.540060   3.355504   5.620272   4.158189
    44  Co   4.144345   1.968539   4.243489   5.428297   5.586223
                   26         27         28         29         30
    26  C    0.000000
    27  H    2.163317   0.000000
    28  C    1.386073   3.409290   0.000000
    29  H    3.413110   5.008409   2.169942   0.000000
    30  H    1.084929   2.474108   2.144216   4.305101   0.000000
    31  H    2.142425   4.297790   1.086571   2.490926   2.463778
    32  N    3.756402   2.913320   4.142269   4.407582   4.676775
    33  N    4.120625   4.420269   3.720197   2.849811   5.203854
    34  N    8.332598   6.900053   8.775751   8.649551   9.143086
    35  N    9.588703   8.517796   9.744077   9.120032  10.522311
    36  C   10.204428   9.385573  10.174365   9.253526  11.198810
    37  H   10.871193  10.064740  10.821229   9.854874  11.866330
    38  H   10.870775  10.064374  10.820782   9.854391  11.865919
    39  H    9.502162   8.878713   9.361154   8.306305  10.528856
    40  C    5.208169   5.799228   4.494614   2.920631   6.284625
    41  H    5.371269   6.174321   4.521720   2.771090   6.414035
    42  H    5.370874   6.174198   4.521165   2.770319   6.413631
    43  H    6.121177   6.440171   5.520867   4.013611   7.205665
    44  Co   6.527231   5.770874   6.590575   6.013037   7.514157
                   31         32         33         34         35
    31  H    0.000000
    32  N    5.226779   0.000000
    33  N    4.639859   2.232395   0.000000
    34  N    9.855884   4.641851   5.846418   0.000000
    35  N   10.776687   5.846417   6.289951   2.232393   0.000000
    36  C   11.153828   6.563259   6.533179   3.617201   1.428776
    37  H   11.788638   7.256784   7.180371   4.226827   2.099720
    38  H   11.788180   7.256384   7.179911   4.226719   2.099757
    39  H   10.305608   5.988115   5.665865   3.909495   2.055249
    40  C    5.217520   3.617202   1.428776   6.563253   6.533170
    41  H    5.121541   4.226694   2.099757   7.256308   7.179835
    42  H    5.120899   4.226851   2.099716   7.256851   7.180433
    43  H    6.288134   3.909500   2.055255   5.988113   5.665860
    44  Co   7.615272   2.893718   3.164002   2.893719   3.164002
                   36         37         38         39         40
    36  C    0.000000
    37  H    1.097866   0.000000
    38  H    1.097870   1.784715   0.000000
    39  H    1.093205   1.772863   1.772887   0.000000
    40  C    6.461254   7.045447   7.044939   5.461892   0.000000
    41  H    7.044885   7.704865   7.494748   6.029969   1.097872
    42  H    7.045508   7.495982   7.704964   6.030478   1.097866
    43  H    5.461895   6.030415   6.030033   4.432140   1.093203
    44  Co   3.685017   4.411553   4.411124   3.108473   3.685009
                   41         42         43         44
    41  H    0.000000
    42  H    1.784715   0.000000
    43  H    1.772890   1.772860   0.000000
    44  Co   4.411061   4.411606   3.108471   0.000000
 Symmetry turned off by external request.
 Stoichiometry    C22H17CoN4(3)
 Framework group  C1[X(C22H17CoN4)]
 Deg. of freedom   126
 Full point group                 C1      NOp   1
 Rotational constants (GHZ):           0.4627061           0.0992628           0.0818145
 General basis read from cards:  (5D, 7F)
 ======================================================================================================
                                       Pseudopotential Parameters
 ======================================================================================================
  Center     Atomic      Valence      Angular      Power
  Number     Number     Electrons     Momentum     of R      Exponent        Coefficient   SO-Coeffient
 ======================================================================================================
    1          6
                                   No pseudopotential on this center.
    2          6
                                   No pseudopotential on this center.
    3          6
                                   No pseudopotential on this center.
    4          6
                                   No pseudopotential on this center.
    5          6
                                   No pseudopotential on this center.
    6          6
                                   No pseudopotential on this center.
    7          1
                                   No pseudopotential on this center.
    8          1
                                   No pseudopotential on this center.
    9          1
                                   No pseudopotential on this center.
   10          6
                                   No pseudopotential on this center.
   11          6
                                   No pseudopotential on this center.
   12          6
                                   No pseudopotential on this center.
   13          6
                                   No pseudopotential on this center.
   14          6
                                   No pseudopotential on this center.
   15          6
                                   No pseudopotential on this center.
   16          1
                                   No pseudopotential on this center.
   17          6
                                   No pseudopotential on this center.
   18          1
                                   No pseudopotential on this center.
   19          1
                                   No pseudopotential on this center.
   20          1
                                   No pseudopotential on this center.
   21          6
                                   No pseudopotential on this center.
   22          6
                                   No pseudopotential on this center.
   23          6
                                   No pseudopotential on this center.
   24          6
                                   No pseudopotential on this center.
   25          6
                                   No pseudopotential on this center.
   26          6
                                   No pseudopotential on this center.
   27          1
                                   No pseudopotential on this center.
   28          6
                                   No pseudopotential on this center.
   29          1
                                   No pseudopotential on this center.
   30          1
                                   No pseudopotential on this center.
   31          1
                                   No pseudopotential on this center.
   32          7
                                   No pseudopotential on this center.
   33          7
                                   No pseudopotential on this center.
   34          7
                                   No pseudopotential on this center.
   35          7
                                   No pseudopotential on this center.
   36          6
                                   No pseudopotential on this center.
   37          1
                                   No pseudopotential on this center.
   38          1
                                   No pseudopotential on this center.
   39          1
                                   No pseudopotential on this center.
   40          6
                                   No pseudopotential on this center.
   41          1
                                   No pseudopotential on this center.
   42          1
                                   No pseudopotential on this center.
   43          1
                                   No pseudopotential on this center.
   44         27           17
                                      F and up 
                                                     2        1.0000000        0.00000000    0.00000000
                                      S - F
                                                     2       23.6600000      283.96056600    0.00000000
                                                     2       10.6100000       47.15684600    0.00000000
                                      P - F
                                                     2       25.0400000      182.21223600    0.00000000
                                                     2       10.4400000       35.23335200    0.00000000
                                      D - F
                                                     2       29.5400000      -26.47533300    0.00000000
                                                     2       10.1800000       -1.82578700    0.00000000
 ======================================================================================================
   441 basis functions,   871 primitive gaussians,   473 cartesian basis functions
    98 alpha electrons       96 beta electrons
       nuclear repulsion energy      2476.9833768323 Hartrees.
 NAtoms=   44 NActive=   44 NUniq=   44 SFac= 1.00D+00 NAtFMM=   60 NAOKFM=F Big=F
 Integral buffers will be    131072 words long.
 Raffenetti 2 integral format.
 Two-electron integral symmetry is turned off.
 Nuclear repulsion after empirical dispersion term =     2476.9244427126 Hartrees.
 One-electron integrals computed using PRISM.
   1 Symmetry operations used in ECPInt.
 ECPInt:  NShTT=   11781 NPrTT=   71406 LenC2=    9490 LenP2D=   31926.
 LDataN:  DoStor=T MaxTD1= 6 Len=  172
 NBasis=   441 RedAO= T EigKep=  3.24D-04  NBF=   441
 NBsUse=   441 1.00D-06 EigRej= -1.00D+00 NBFU=   441
 Initial guess from the checkpoint file:  "b.chk"
 B after Tr=    -0.000000    0.001213    0.000001
         Rot=    1.000000    0.000000    0.000000   -0.000000 Ang=   0.00 deg.
 Initial guess <Sx>= 0.0000 <Sy>= 0.0000 <Sz>= 1.0000 <S**2>= 2.3468 S= 1.1114
 Requested convergence on RMS density matrix=1.00D-08 within  64 cycles.
 Requested convergence on MAX density matrix=1.00D-06.
 Requested convergence on             energy=1.00D-06.
 No special actions if energy rises.
 Restarting incremental Fock formation.
 SCF Done:  E(UPBE1PBE) =  -1212.11241391     A.U. after   21 cycles
            NFock= 21  Conv=0.62D-08     -V/T= 2.0553
 <Sx>= 0.0000 <Sy>= 0.0000 <Sz>= 1.0000 <S**2>= 2.3385 S= 1.1089
 <L.S>=  0.00000000000    
 Annihilation of the first spin contaminant:
 S**2 before annihilation     2.3385,   after     2.0087
 QCSCF skips out because SCF is already converged.

 **********************************************************************

            Population analysis using the SCF Density.

 **********************************************************************

 Alpha  occ. eigenvalues --  -14.45300 -14.45300 -14.45161 -14.45160 -10.28150
 Alpha  occ. eigenvalues --  -10.28150 -10.27552 -10.27552 -10.27246 -10.27246
 Alpha  occ. eigenvalues --  -10.27230 -10.27230 -10.26748 -10.26747 -10.23671
 Alpha  occ. eigenvalues --  -10.23671 -10.23583 -10.23583 -10.23067 -10.23067
 Alpha  occ. eigenvalues --  -10.22956 -10.22956 -10.22430 -10.22418 -10.22327
 Alpha  occ. eigenvalues --  -10.21067  -3.93431  -2.45323  -2.43722  -2.43240
 Alpha  occ. eigenvalues --   -1.05572  -1.05495  -0.96990  -0.96603  -0.88007
 Alpha  occ. eigenvalues --   -0.87613  -0.85591  -0.80399  -0.78820  -0.77586
 Alpha  occ. eigenvalues --   -0.77580  -0.75524  -0.74807  -0.73207  -0.72321
 Alpha  occ. eigenvalues --   -0.66704  -0.65286  -0.64358  -0.64078  -0.62610
 Alpha  occ. eigenvalues --   -0.61285  -0.58916  -0.57587  -0.56562  -0.53932
 Alpha  occ. eigenvalues --   -0.53036  -0.52303  -0.49621  -0.49540  -0.49079
 Alpha  occ. eigenvalues --   -0.48547  -0.48080  -0.47267  -0.46761  -0.45840
 Alpha  occ. eigenvalues --   -0.45675  -0.45331  -0.44817  -0.44756  -0.44050
 Alpha  occ. eigenvalues --   -0.42738  -0.41869  -0.41273  -0.38900  -0.38513
 Alpha  occ. eigenvalues --   -0.38439  -0.37458  -0.37296  -0.37166  -0.36915
 Alpha  occ. eigenvalues --   -0.36321  -0.35076  -0.34552  -0.33937  -0.31954
 Alpha  occ. eigenvalues --   -0.31309  -0.30342  -0.26888  -0.26602  -0.26578
 Alpha  occ. eigenvalues --   -0.26187  -0.26014  -0.24508  -0.24221  -0.22917
 Alpha  occ. eigenvalues --   -0.20925  -0.20686  -0.10100
 Alpha virt. eigenvalues --   -0.06316  -0.03030  -0.00267  -0.00045   0.00333
 Alpha virt. eigenvalues --    0.02222   0.02745   0.03449   0.03822   0.05636
 Alpha virt. eigenvalues --    0.06121   0.07569   0.07605   0.09630   0.10186
 Alpha virt. eigenvalues --    0.12549   0.12999   0.13737   0.13963   0.14891
 Alpha virt. eigenvalues --    0.15149   0.15358   0.15704   0.15968   0.16512
 Alpha virt. eigenvalues --    0.16890   0.17664   0.17801   0.17859   0.18098
 Alpha virt. eigenvalues --    0.19357   0.19774   0.19814   0.19853   0.21018
 Alpha virt. eigenvalues --    0.21652   0.22079   0.22611   0.23701   0.25374
 Alpha virt. eigenvalues --    0.25529   0.25552   0.26100   0.27550   0.27691
 Alpha virt. eigenvalues --    0.27767   0.28560   0.29752   0.30404   0.31200
 Alpha virt. eigenvalues --    0.32815   0.32983   0.33820   0.34682   0.36238
 Alpha virt. eigenvalues --    0.37381   0.37494   0.39166   0.39257   0.41398
 Alpha virt. eigenvalues --    0.42134   0.44047   0.44093   0.45833   0.46577
 Alpha virt. eigenvalues --    0.47016   0.49245   0.51163   0.51667   0.51949
 Alpha virt. eigenvalues --    0.53800   0.53991   0.56131   0.56136   0.56277
 Alpha virt. eigenvalues --    0.56832   0.57007   0.57974   0.58320   0.58620
 Alpha virt. eigenvalues --    0.58628   0.59477   0.60275   0.61420   0.61500
 Alpha virt. eigenvalues --    0.61602   0.62986   0.63045   0.63203   0.63454
 Alpha virt. eigenvalues --    0.63528   0.63571   0.64118   0.64251   0.65064
 Alpha virt. eigenvalues --    0.65116   0.65782   0.65943   0.66967   0.67322
 Alpha virt. eigenvalues --    0.67878   0.68399   0.68800   0.70947   0.71896
 Alpha virt. eigenvalues --    0.71961   0.73371   0.75051   0.75474   0.76067
 Alpha virt. eigenvalues --    0.76866   0.77797   0.79261   0.79625   0.81051
 Alpha virt. eigenvalues --    0.81582   0.82201   0.82655   0.83573   0.84277
 Alpha virt. eigenvalues --    0.84480   0.84906   0.86000   0.86498   0.86586
 Alpha virt. eigenvalues --    0.87420   0.87651   0.89416   0.89483   0.90442
 Alpha virt. eigenvalues --    0.90831   0.91255   0.91599   0.92824   0.93026
 Alpha virt. eigenvalues --    0.93367   0.94519   0.94979   0.95069   0.95750
 Alpha virt. eigenvalues --    0.97075   0.97526   0.97563   0.98287   0.98337
 Alpha virt. eigenvalues --    1.00012   1.00126   1.01261   1.02101   1.02531
 Alpha virt. eigenvalues --    1.02666   1.03829   1.06004   1.07063   1.07803
 Alpha virt. eigenvalues --    1.08226   1.09350   1.09472   1.10274   1.13527
 Alpha virt. eigenvalues --    1.14754   1.15435   1.16244   1.18169   1.18401
 Alpha virt. eigenvalues --    1.19131   1.19492   1.23391   1.23709   1.24198
 Alpha virt. eigenvalues --    1.24506   1.25683   1.26332   1.26398   1.28889
 Alpha virt. eigenvalues --    1.28939   1.29277   1.31101   1.33369   1.33720
 Alpha virt. eigenvalues --    1.36228   1.36333   1.36455   1.38447   1.39257
 Alpha virt. eigenvalues --    1.41049   1.41972   1.42398   1.42625   1.45154
 Alpha virt. eigenvalues --    1.45294   1.45508   1.45646   1.47179   1.48180
 Alpha virt. eigenvalues --    1.49426   1.50065   1.50127   1.50300   1.50369
 Alpha virt. eigenvalues --    1.50414   1.52124   1.52166   1.56324   1.56486
 Alpha virt. eigenvalues --    1.57526   1.61681   1.64011   1.64646   1.65307
 Alpha virt. eigenvalues --    1.70061   1.72278   1.72652   1.76331   1.77046
 Alpha virt. eigenvalues --    1.77964   1.79454   1.79537   1.82048   1.82573
 Alpha virt. eigenvalues --    1.84588   1.86201   1.86666   1.87186   1.87734
 Alpha virt. eigenvalues --    1.87901   1.89444   1.90866   1.91342   1.92905
 Alpha virt. eigenvalues --    1.94781   1.95075   1.96383   1.96697   1.97639
 Alpha virt. eigenvalues --    1.97901   1.98273   1.98461   1.98841   1.99386
 Alpha virt. eigenvalues --    2.00357   2.01154   2.02444   2.02998   2.05680
 Alpha virt. eigenvalues --    2.06036   2.06675   2.09191   2.09495   2.12051
 Alpha virt. eigenvalues --    2.12487   2.14287   2.14952   2.15181   2.15901
 Alpha virt. eigenvalues --    2.16442   2.16594   2.18944   2.19604   2.20424
 Alpha virt. eigenvalues --    2.21187   2.21198   2.21653   2.23506   2.23921
 Alpha virt. eigenvalues --    2.24347   2.26325   2.27179   2.27348   2.27350
 Alpha virt. eigenvalues --    2.27782   2.28006   2.28305   2.28681   2.32505
 Alpha virt. eigenvalues --    2.34011   2.38099   2.38674   2.40239   2.40246
 Alpha virt. eigenvalues --    2.42503   2.43679   2.44243   2.44699   2.46534
 Alpha virt. eigenvalues --    2.51101   2.51268   2.56974   2.58226   2.58669
 Alpha virt. eigenvalues --    2.58985   2.59828   2.59966   2.62007   2.63632
 Alpha virt. eigenvalues --    2.65083   2.66607   2.67127   2.68336   2.69008
 Alpha virt. eigenvalues --    2.69014   2.70519   2.72041   2.74480   2.74517
 Alpha virt. eigenvalues --    2.74532   2.76193   2.77634   2.78695   2.79829
 Alpha virt. eigenvalues --    2.82159   2.84275   2.87454   2.88237   2.91769
 Alpha virt. eigenvalues --    2.93116   2.96188   2.98091   2.98764   2.99758
 Alpha virt. eigenvalues --    3.05402   3.06648   3.14246   3.17502   3.18546
 Alpha virt. eigenvalues --    3.28762   3.38574   3.45201   3.46556   3.51460
 Alpha virt. eigenvalues --    3.51547   3.55685   5.55337   5.56697   5.57120
 Alpha virt. eigenvalues --    5.59586   5.61039   5.61045   5.62531  45.70374
 Alpha virt. eigenvalues --   45.84919  45.90785  63.01134
  Beta  occ. eigenvalues --  -14.45174 -14.45174 -14.45136 -14.45136 -10.27922
  Beta  occ. eigenvalues --  -10.27922 -10.27554 -10.27554 -10.27267 -10.27267
  Beta  occ. eigenvalues --  -10.27255 -10.27255 -10.26634 -10.26633 -10.23612
  Beta  occ. eigenvalues --  -10.23611 -10.23561 -10.23561 -10.23076 -10.23076
  Beta  occ. eigenvalues --  -10.22921 -10.22921 -10.22519 -10.22515 -10.22223
  Beta  occ. eigenvalues --  -10.21658  -3.85633  -2.36935  -2.36286  -2.33934
  Beta  occ. eigenvalues --   -1.05370  -1.05289  -0.96827  -0.96403  -0.88006
  Beta  occ. eigenvalues --   -0.87543  -0.85700  -0.80341  -0.78800  -0.77531
  Beta  occ. eigenvalues --   -0.77519  -0.75394  -0.74606  -0.73216  -0.72572
  Beta  occ. eigenvalues --   -0.66743  -0.65195  -0.64109  -0.64068  -0.62608
  Beta  occ. eigenvalues --   -0.61188  -0.58910  -0.57688  -0.56558  -0.53913
  Beta  occ. eigenvalues --   -0.53021  -0.52283  -0.49163  -0.49096  -0.49056
  Beta  occ. eigenvalues --   -0.48573  -0.48226  -0.47245  -0.46755  -0.45809
  Beta  occ. eigenvalues --   -0.45677  -0.45300  -0.44823  -0.44408  -0.43741
  Beta  occ. eigenvalues --   -0.42783  -0.41847  -0.41287  -0.38633  -0.38565
  Beta  occ. eigenvalues --   -0.38549  -0.37290  -0.37267  -0.36513  -0.36439
  Beta  occ. eigenvalues --   -0.35665  -0.35154  -0.34014  -0.33296  -0.31622
  Beta  occ. eigenvalues --   -0.29746  -0.27472  -0.26531  -0.25913  -0.24782
  Beta  occ. eigenvalues --   -0.23768  -0.23276  -0.21950  -0.20728  -0.19848
  Beta  occ. eigenvalues --   -0.19592
  Beta virt. eigenvalues --   -0.04437  -0.03913  -0.00770  -0.00351  -0.00111
  Beta virt. eigenvalues --    0.01366   0.01722   0.02407   0.03491   0.05393
  Beta virt. eigenvalues --    0.05680   0.06027   0.07890   0.08641   0.09288
  Beta virt. eigenvalues --    0.10207   0.10569   0.12637   0.13101   0.13858
  Beta virt. eigenvalues --    0.14271   0.15285   0.15286   0.15998   0.16050
  Beta virt. eigenvalues --    0.16557   0.16656   0.16932   0.17753   0.17977
  Beta virt. eigenvalues --    0.18439   0.18687   0.19500   0.19895   0.20054
  Beta virt. eigenvalues --    0.21435   0.21767   0.22263   0.22588   0.22678
  Beta virt. eigenvalues --    0.23756   0.25604   0.25640   0.26074   0.27028
  Beta virt. eigenvalues --    0.27578   0.27853   0.29051   0.29101   0.30119
  Beta virt. eigenvalues --    0.30719   0.31316   0.32939   0.32964   0.34170
  Beta virt. eigenvalues --    0.34733   0.36352   0.37643   0.37779   0.39303
  Beta virt. eigenvalues --    0.39342   0.41358   0.42547   0.44271   0.44535
  Beta virt. eigenvalues --    0.45888   0.46987   0.47518   0.49558   0.51248
  Beta virt. eigenvalues --    0.51799   0.51954   0.53897   0.54127   0.56166
  Beta virt. eigenvalues --    0.56172   0.56479   0.56892   0.57068   0.58153
  Beta virt. eigenvalues --    0.58445   0.58669   0.58893   0.59533   0.60333
  Beta virt. eigenvalues --    0.61570   0.61585   0.61721   0.62927   0.63037
  Beta virt. eigenvalues --    0.63372   0.63491   0.63611   0.63707   0.64152
  Beta virt. eigenvalues --    0.64265   0.65055   0.65159   0.65843   0.66104
  Beta virt. eigenvalues --    0.67409   0.67612   0.67910   0.68584   0.68629
  Beta virt. eigenvalues --    0.70955   0.71839   0.72146   0.73681   0.75296
  Beta virt. eigenvalues --    0.75479   0.76192   0.76962   0.78287   0.79399
  Beta virt. eigenvalues --    0.80205   0.81243   0.81794   0.82413   0.82698
  Beta virt. eigenvalues --    0.84004   0.84367   0.84538   0.85162   0.86001
  Beta virt. eigenvalues --    0.86793   0.86946   0.87435   0.87657   0.89473
  Beta virt. eigenvalues --    0.89675   0.90505   0.91110   0.91272   0.91730
  Beta virt. eigenvalues --    0.92845   0.93028   0.93416   0.95012   0.95217
  Beta virt. eigenvalues --    0.96169   0.96312   0.97082   0.97613   0.97892
  Beta virt. eigenvalues --    0.98284   0.98394   1.00114   1.00135   1.01309
  Beta virt. eigenvalues --    1.02146   1.02569   1.02706   1.03905   1.06102
  Beta virt. eigenvalues --    1.07088   1.08304   1.09275   1.09345   1.10626
  Beta virt. eigenvalues --    1.13595   1.14860   1.15481   1.16271   1.16575
  Beta virt. eigenvalues --    1.18193   1.18433   1.19165   1.19602   1.23426
  Beta virt. eigenvalues --    1.23846   1.24409   1.24569   1.26309   1.26360
  Beta virt. eigenvalues --    1.26541   1.29060   1.29125   1.29433   1.31075
  Beta virt. eigenvalues --    1.33741   1.34022   1.36417   1.36589   1.36725
  Beta virt. eigenvalues --    1.38591   1.39567   1.41303   1.42301   1.42706
  Beta virt. eigenvalues --    1.42924   1.45116   1.45395   1.45695   1.45786
  Beta virt. eigenvalues --    1.47366   1.48294   1.49604   1.50076   1.50388
  Beta virt. eigenvalues --    1.50436   1.50486   1.50590   1.52581   1.53402
  Beta virt. eigenvalues --    1.56391   1.56572   1.58358   1.61850   1.64095
  Beta virt. eigenvalues --    1.65380   1.65550   1.70111   1.72685   1.72795
  Beta virt. eigenvalues --    1.76541   1.77014   1.78290   1.79434   1.79653
  Beta virt. eigenvalues --    1.82142   1.82659   1.84648   1.86332   1.86799
  Beta virt. eigenvalues --    1.87188   1.87566   1.87855   1.89641   1.90894
  Beta virt. eigenvalues --    1.91413   1.92937   1.94802   1.95130   1.96406
  Beta virt. eigenvalues --    1.96764   1.97782   1.97960   1.98309   1.98449
  Beta virt. eigenvalues --    1.98963   1.99618   2.00388   2.01204   2.02487
  Beta virt. eigenvalues --    2.03060   2.05767   2.06222   2.06917   2.09372
  Beta virt. eigenvalues --    2.09432   2.12207   2.12465   2.14615   2.15013
  Beta virt. eigenvalues --    2.15203   2.15967   2.16573   2.16615   2.19054
  Beta virt. eigenvalues --    2.19846   2.20536   2.21263   2.21290   2.21780
  Beta virt. eigenvalues --    2.23767   2.24255   2.24510   2.26534   2.27322
  Beta virt. eigenvalues --    2.27399   2.27424   2.27912   2.28247   2.28520
  Beta virt. eigenvalues --    2.28844   2.32620   2.34399   2.38237   2.39096
  Beta virt. eigenvalues --    2.40366   2.40424   2.44039   2.44528   2.44948
  Beta virt. eigenvalues --    2.46573   2.48447   2.51191   2.51334   2.57172
  Beta virt. eigenvalues --    2.58487   2.58713   2.58858   2.60011   2.60264
  Beta virt. eigenvalues --    2.62097   2.63832   2.65302   2.66726   2.67558
  Beta virt. eigenvalues --    2.69025   2.69069   2.69095   2.71635   2.72704
  Beta virt. eigenvalues --    2.74586   2.74648   2.74876   2.77219   2.77927
  Beta virt. eigenvalues --    2.79060   2.79945   2.82443   2.84566   2.87780
  Beta virt. eigenvalues --    2.88403   2.92668   2.93108   2.96466   2.98025
  Beta virt. eigenvalues --    2.99188   2.99817   3.05572   3.06849   3.14292
  Beta virt. eigenvalues --    3.17682   3.18717   3.28537   3.38599   3.45871
  Beta virt. eigenvalues --    3.46561   3.51442   3.51564   3.58750   5.61448
  Beta virt. eigenvalues --    5.63512   5.63701   5.63800   5.65432   5.68088
  Beta virt. eigenvalues --    5.69305  45.81143  45.93369  45.99020  63.07779
          Condensed to atoms (all electrons):
               1          2          3          4          5          6
     1  C    5.197248   0.501515  -0.061040  -0.055393  -0.061039   0.501511
     2  C    0.501515   4.566559   0.526193  -0.015048  -0.039444  -0.017114
     3  C   -0.061040   0.526193   5.044086   0.527549  -0.030562  -0.039444
     4  C   -0.055393  -0.015048   0.527549   4.908477   0.527551  -0.015048
     5  C   -0.061039  -0.039444  -0.030562   0.527551   5.044082   0.526194
     6  C    0.501511  -0.017114  -0.039444  -0.015048   0.526194   4.566560
     7  H    0.005999  -0.038346   0.345847  -0.039335   0.003923   0.000750
     8  H    0.001402   0.002579  -0.035468   0.366546  -0.035467   0.002579
     9  H    0.005999   0.000750   0.003923  -0.039335   0.345846  -0.038346
    10  C    0.005773  -0.000028   0.000002   0.000109  -0.004671  -0.043277
    11  C    0.006216   0.001807  -0.000040   0.000035   0.002484  -0.063060
    12  C   -0.000656   0.000001  -0.000000   0.000000   0.000102   0.007069
    13  C    0.000156   0.000001  -0.000001   0.000051   0.001724  -0.004152
    14  C    0.000002  -0.000000   0.000000  -0.000000   0.000001  -0.000041
    15  C    0.000001  -0.000000   0.000000  -0.000001   0.000066   0.000057
    16  H   -0.000022   0.000000   0.000001   0.000085   0.000075   0.000823
    17  C    0.000000   0.000000   0.000000   0.000000  -0.000000  -0.000001
    18  H   -0.000000   0.000000   0.000000   0.000000  -0.000000   0.000002
    19  H   -0.000000   0.000000  -0.000000   0.000000   0.000001  -0.000002
    20  H    0.000000  -0.000000   0.000000  -0.000000  -0.000000  -0.000000
    21  C    0.005773  -0.043276  -0.004671   0.000109   0.000002  -0.000028
    22  C    0.006217  -0.063058   0.002484   0.000035  -0.000040   0.001806
    23  C   -0.000656   0.007069   0.000102   0.000000  -0.000000   0.000001
    24  C    0.000156  -0.004152   0.001724   0.000051  -0.000001   0.000001
    25  C    0.000002  -0.000041   0.000001  -0.000000   0.000000  -0.000000
    26  C    0.000001   0.000057   0.000066  -0.000001   0.000000  -0.000000
    27  H   -0.000022   0.000823   0.000075   0.000085   0.000001   0.000000
    28  C    0.000000  -0.000001  -0.000000   0.000000   0.000000   0.000000
    29  H   -0.000000   0.000002  -0.000000   0.000000   0.000000   0.000000
    30  H   -0.000000  -0.000002   0.000001   0.000000  -0.000000   0.000000
    31  H    0.000000  -0.000000  -0.000000  -0.000000   0.000000  -0.000000
    32  N   -0.040358   0.269437  -0.070032   0.004585   0.000051   0.005951
    33  N    0.001193   0.005928  -0.000162   0.000001   0.000000  -0.000031
    34  N   -0.040358   0.005951   0.000051   0.004585  -0.070033   0.269439
    35  N    0.001193  -0.000031   0.000000   0.000001  -0.000162   0.005928
    36  C   -0.000006   0.000000   0.000000  -0.000000   0.000002  -0.000045
    37  H   -0.000000  -0.000000   0.000000   0.000000  -0.000000   0.000003
    38  H   -0.000000  -0.000000   0.000000   0.000000  -0.000000   0.000003
    39  H   -0.000021   0.000001   0.000000  -0.000000   0.000000  -0.000009
    40  C   -0.000006  -0.000045   0.000002  -0.000000   0.000000   0.000000
    41  H   -0.000000   0.000003  -0.000000   0.000000   0.000000  -0.000000
    42  H   -0.000000   0.000003  -0.000000   0.000000   0.000000  -0.000000
    43  H   -0.000021  -0.000009   0.000000  -0.000000   0.000000   0.000001
    44  Co   0.256168  -0.059157   0.003961   0.003498   0.003961  -0.059157
               7          8          9         10         11         12
     1  C    0.005999   0.001402   0.005999   0.005773   0.006216  -0.000656
     2  C   -0.038346   0.002579   0.000750  -0.000028   0.001807   0.000001
     3  C    0.345847  -0.035468   0.003923   0.000002  -0.000040  -0.000000
     4  C   -0.039335   0.366546  -0.039335   0.000109   0.000035   0.000000
     5  C    0.003923  -0.035467   0.345846  -0.004671   0.002484   0.000102
     6  C    0.000750   0.002579  -0.038346  -0.043277  -0.063060   0.007069
     7  H    0.555441  -0.004241  -0.000103  -0.000000  -0.000000   0.000000
     8  H   -0.004241   0.542625  -0.004241  -0.000002   0.000001  -0.000000
     9  H   -0.000103  -0.004241   0.555443   0.000456  -0.000151  -0.000033
    10  C   -0.000000  -0.000002   0.000456   4.635106  -0.067284   0.515122
    11  C   -0.000000   0.000001  -0.000151  -0.067284   4.814591  -0.056163
    12  C    0.000000  -0.000000  -0.000033   0.515122  -0.056163   4.647797
    13  C   -0.000000   0.000002   0.000039   0.539340   0.004637  -0.055185
    14  C   -0.000000   0.000000   0.000000  -0.048050   0.005432   0.532719
    15  C   -0.000000   0.000000   0.000093  -0.006333  -0.000070  -0.037772
    16  H    0.000000  -0.000009   0.005884  -0.034220  -0.000151   0.003718
    17  C    0.000000  -0.000000   0.000002  -0.039224  -0.000075  -0.007685
    18  H    0.000000  -0.000000  -0.000000   0.003888  -0.000201  -0.038077
    19  H    0.000000   0.000000  -0.000008   0.001972   0.000003   0.000922
    20  H   -0.000000  -0.000000   0.000000   0.000898   0.000003   0.002282
    21  C    0.000456  -0.000002  -0.000000  -0.000000  -0.000006   0.000000
    22  C   -0.000151   0.000001  -0.000000  -0.000006  -0.010945  -0.000001
    23  C   -0.000033  -0.000000   0.000000   0.000000  -0.000001  -0.000000
    24  C    0.000039   0.000002  -0.000000   0.000000   0.000000   0.000000
    25  C    0.000000   0.000000  -0.000000  -0.000000   0.000000   0.000000
    26  C    0.000093   0.000000  -0.000000  -0.000000  -0.000000   0.000000
    27  H    0.005883  -0.000009   0.000000   0.000000   0.000000  -0.000000
    28  C    0.000002  -0.000000   0.000000   0.000000  -0.000000  -0.000000
    29  H   -0.000000  -0.000000   0.000000   0.000000   0.000000  -0.000000
    30  H   -0.000008   0.000000   0.000000   0.000000   0.000000   0.000000
    31  H    0.000000  -0.000000  -0.000000   0.000000   0.000000   0.000000
    32  N   -0.003995  -0.000096   0.000007   0.000000   0.000201   0.000000
    33  N    0.000002  -0.000000  -0.000000   0.000000   0.000013   0.000000
    34  N    0.000007  -0.000096  -0.003995   0.255671   0.340235  -0.038751
    35  N   -0.000000  -0.000000   0.000002  -0.045758   0.305656   0.271483
    36  C   -0.000000   0.000000  -0.000000   0.005627  -0.043666  -0.047426
    37  H    0.000000  -0.000000   0.000000  -0.000127   0.000744  -0.001158
    38  H    0.000000  -0.000000   0.000000  -0.000127   0.000740  -0.001154
    39  H    0.000000   0.000000   0.000000   0.000014  -0.000370   0.002654
    40  C   -0.000000   0.000000  -0.000000   0.000000   0.000012   0.000000
    41  H    0.000000  -0.000000   0.000000  -0.000000  -0.000000  -0.000000
    42  H    0.000000  -0.000000   0.000000  -0.000000  -0.000000  -0.000000
    43  H    0.000000   0.000000   0.000000  -0.000000  -0.000001  -0.000000
    44  Co  -0.000660   0.000121  -0.000660   0.007790   0.387400   0.004750
              13         14         15         16         17         18
     1  C    0.000156   0.000002   0.000001  -0.000022   0.000000  -0.000000
     2  C    0.000001  -0.000000  -0.000000   0.000000   0.000000   0.000000
     3  C   -0.000001   0.000000   0.000000   0.000001   0.000000   0.000000
     4  C    0.000051  -0.000000  -0.000001   0.000085   0.000000   0.000000
     5  C    0.001724   0.000001   0.000066   0.000075  -0.000000  -0.000000
     6  C   -0.004152  -0.000041   0.000057   0.000823  -0.000001   0.000002
     7  H   -0.000000  -0.000000  -0.000000   0.000000   0.000000   0.000000
     8  H    0.000002   0.000000   0.000000  -0.000009  -0.000000  -0.000000
     9  H    0.000039   0.000000   0.000093   0.005884   0.000002  -0.000000
    10  C    0.539340  -0.048050  -0.006333  -0.034220  -0.039224   0.003888
    11  C    0.004637   0.005432  -0.000070  -0.000151  -0.000075  -0.000201
    12  C   -0.055185   0.532719  -0.037772   0.003718  -0.007685  -0.038077
    13  C    5.028064  -0.044954   0.507715   0.356107  -0.035836   0.000293
    14  C   -0.044954   5.037141  -0.038671   0.000465   0.515909   0.362649
    15  C    0.507715  -0.038671   4.898834  -0.036167   0.559579   0.003978
    16  H    0.356107   0.000465  -0.036167   0.518710   0.003772   0.000014
    17  C   -0.035836   0.515909   0.559579   0.003772   4.884736  -0.036005
    18  H    0.000293   0.362649   0.003978   0.000014  -0.036005   0.536772
    19  H   -0.035870   0.004050   0.368978  -0.004104  -0.036201  -0.000153
    20  H    0.004041  -0.036770  -0.036449  -0.000152   0.368153  -0.004267
    21  C    0.000000  -0.000000  -0.000000   0.000000   0.000000   0.000000
    22  C    0.000000   0.000000  -0.000000   0.000000  -0.000000   0.000000
    23  C    0.000000   0.000000   0.000000  -0.000000  -0.000000  -0.000000
    24  C    0.000000  -0.000000  -0.000000   0.000000   0.000000   0.000000
    25  C   -0.000000  -0.000000   0.000000  -0.000000  -0.000000   0.000000
    26  C   -0.000000   0.000000  -0.000000  -0.000000   0.000000   0.000000
    27  H    0.000000  -0.000000  -0.000000   0.000000   0.000000  -0.000000
    28  C    0.000000  -0.000000   0.000000   0.000000   0.000000   0.000000
    29  H    0.000000   0.000000   0.000000  -0.000000   0.000000  -0.000000
    30  H   -0.000000  -0.000000   0.000000  -0.000000   0.000000   0.000000
    31  H   -0.000000   0.000000   0.000000  -0.000000   0.000000   0.000000
    32  N   -0.000000  -0.000000   0.000000   0.000000   0.000000  -0.000000
    33  N   -0.000000  -0.000000   0.000000   0.000000   0.000000  -0.000000
    34  N   -0.077395   0.008979   0.005094  -0.004995  -0.000209  -0.000089
    35  N    0.009382  -0.083723  -0.000147  -0.000098   0.005371  -0.007216
    36  C   -0.000121  -0.002932   0.000009   0.000003  -0.000110   0.004118
    37  H   -0.000008   0.002645  -0.000002  -0.000000  -0.000007   0.000495
    38  H   -0.000008   0.002643  -0.000002  -0.000000  -0.000007   0.000493
    39  H    0.000006   0.000013  -0.000000  -0.000000   0.000001  -0.000030
    40  C    0.000000   0.000000  -0.000000   0.000000   0.000000  -0.000000
    41  H    0.000000   0.000000  -0.000000   0.000000  -0.000000  -0.000000
    42  H    0.000000   0.000000  -0.000000   0.000000  -0.000000  -0.000000
    43  H   -0.000000   0.000000  -0.000000   0.000000  -0.000000   0.000000
    44  Co  -0.000476  -0.000430  -0.000023   0.000058   0.000009   0.000023
              19         20         21         22         23         24
     1  C   -0.000000   0.000000   0.005773   0.006217  -0.000656   0.000156
     2  C    0.000000  -0.000000  -0.043276  -0.063058   0.007069  -0.004152
     3  C   -0.000000   0.000000  -0.004671   0.002484   0.000102   0.001724
     4  C    0.000000  -0.000000   0.000109   0.000035   0.000000   0.000051
     5  C    0.000001  -0.000000   0.000002  -0.000040  -0.000000  -0.000001
     6  C   -0.000002  -0.000000  -0.000028   0.001806   0.000001   0.000001
     7  H    0.000000  -0.000000   0.000456  -0.000151  -0.000033   0.000039
     8  H    0.000000  -0.000000  -0.000002   0.000001  -0.000000   0.000002
     9  H   -0.000008   0.000000  -0.000000  -0.000000   0.000000  -0.000000
    10  C    0.001972   0.000898  -0.000000  -0.000006   0.000000   0.000000
    11  C    0.000003   0.000003  -0.000006  -0.010945  -0.000001   0.000000
    12  C    0.000922   0.002282   0.000000  -0.000001  -0.000000   0.000000
    13  C   -0.035870   0.004041   0.000000   0.000000   0.000000   0.000000
    14  C    0.004050  -0.036770  -0.000000   0.000000   0.000000  -0.000000
    15  C    0.368978  -0.036449  -0.000000  -0.000000   0.000000  -0.000000
    16  H   -0.004104  -0.000152   0.000000   0.000000  -0.000000   0.000000
    17  C   -0.036201   0.368153   0.000000  -0.000000  -0.000000   0.000000
    18  H   -0.000153  -0.004267   0.000000   0.000000  -0.000000   0.000000
    19  H    0.534426  -0.004613   0.000000   0.000000   0.000000  -0.000000
    20  H   -0.004613   0.537810   0.000000   0.000000   0.000000  -0.000000
    21  C    0.000000   0.000000   4.635117  -0.067287   0.515130   0.539335
    22  C    0.000000   0.000000  -0.067287   4.814594  -0.056164   0.004637
    23  C    0.000000   0.000000   0.515130  -0.056164   4.647805  -0.055184
    24  C   -0.000000  -0.000000   0.539335   0.004637  -0.055184   5.028052
    25  C   -0.000000   0.000000  -0.048050   0.005432   0.532714  -0.044949
    26  C    0.000000   0.000000  -0.006336  -0.000070  -0.037771   0.507717
    27  H   -0.000000  -0.000000  -0.034221  -0.000151   0.003718   0.356111
    28  C    0.000000   0.000000  -0.039223  -0.000075  -0.007688  -0.035838
    29  H    0.000000   0.000000   0.003888  -0.000201  -0.038076   0.000293
    30  H    0.000000   0.000000   0.001972   0.000003   0.000922  -0.035872
    31  H    0.000000   0.000000   0.000898   0.000003   0.002282   0.004041
    32  N    0.000000   0.000000   0.255673   0.340238  -0.038752  -0.077390
    33  N   -0.000000  -0.000000  -0.045760   0.305658   0.271485   0.009381
    34  N   -0.000087   0.000004   0.000000   0.000201   0.000000  -0.000000
    35  N    0.000004  -0.000096   0.000000   0.000013   0.000000  -0.000000
    36  C   -0.000000  -0.000002   0.000000   0.000012   0.000000   0.000000
    37  H   -0.000000  -0.000000  -0.000000  -0.000000  -0.000000   0.000000
    38  H   -0.000000  -0.000000  -0.000000  -0.000000  -0.000000   0.000000
    39  H   -0.000000  -0.000000  -0.000000  -0.000001  -0.000000  -0.000000
    40  C    0.000000  -0.000000   0.005627  -0.043666  -0.047425  -0.000121
    41  H   -0.000000   0.000000  -0.000127   0.000739  -0.001153  -0.000008
    42  H   -0.000000   0.000000  -0.000127   0.000745  -0.001158  -0.000008
    43  H    0.000000   0.000000   0.000014  -0.000370   0.002654   0.000006
    44  Co   0.000013  -0.000004   0.007790   0.387400   0.004750  -0.000476
              25         26         27         28         29         30
     1  C    0.000002   0.000001  -0.000022   0.000000  -0.000000  -0.000000
     2  C   -0.000041   0.000057   0.000823  -0.000001   0.000002  -0.000002
     3  C    0.000001   0.000066   0.000075  -0.000000  -0.000000   0.000001
     4  C   -0.000000  -0.000001   0.000085   0.000000   0.000000   0.000000
     5  C    0.000000   0.000000   0.000001   0.000000   0.000000  -0.000000
     6  C   -0.000000  -0.000000   0.000000   0.000000   0.000000   0.000000
     7  H    0.000000   0.000093   0.005883   0.000002  -0.000000  -0.000008
     8  H    0.000000   0.000000  -0.000009  -0.000000  -0.000000   0.000000
     9  H   -0.000000  -0.000000   0.000000   0.000000   0.000000   0.000000
    10  C   -0.000000  -0.000000   0.000000   0.000000   0.000000   0.000000
    11  C    0.000000  -0.000000   0.000000  -0.000000   0.000000   0.000000
    12  C    0.000000   0.000000  -0.000000  -0.000000  -0.000000   0.000000
    13  C   -0.000000  -0.000000   0.000000   0.000000   0.000000  -0.000000
    14  C   -0.000000   0.000000  -0.000000  -0.000000   0.000000  -0.000000
    15  C    0.000000  -0.000000  -0.000000   0.000000   0.000000   0.000000
    16  H   -0.000000  -0.000000   0.000000   0.000000  -0.000000  -0.000000
    17  C   -0.000000   0.000000   0.000000   0.000000   0.000000   0.000000
    18  H    0.000000   0.000000  -0.000000   0.000000  -0.000000   0.000000
    19  H   -0.000000   0.000000  -0.000000   0.000000   0.000000   0.000000
    20  H    0.000000   0.000000  -0.000000   0.000000   0.000000   0.000000
    21  C   -0.048050  -0.006336  -0.034221  -0.039223   0.003888   0.001972
    22  C    0.005432  -0.000070  -0.000151  -0.000075  -0.000201   0.000003
    23  C    0.532714  -0.037771   0.003718  -0.007688  -0.038076   0.000922
    24  C   -0.044949   0.507717   0.356111  -0.035838   0.000293  -0.035872
    25  C    5.037132  -0.038673   0.000465   0.515910   0.362652   0.004050
    26  C   -0.038673   4.898823  -0.036166   0.559589   0.003978   0.368976
    27  H    0.000465  -0.036166   0.518705   0.003772   0.000014  -0.004104
    28  C    0.515910   0.559589   0.003772   4.884725  -0.036004  -0.036200
    29  H    0.362652   0.003978   0.000014  -0.036004   0.536766  -0.000153
    30  H    0.004050   0.368976  -0.004104  -0.036200  -0.000153   0.534432
    31  H   -0.036772  -0.036449  -0.000152   0.368152  -0.004266  -0.004613
    32  N    0.008978   0.005094  -0.004995  -0.000209  -0.000089  -0.000087
    33  N   -0.083719  -0.000147  -0.000098   0.005371  -0.007215   0.000004
    34  N   -0.000000   0.000000   0.000000   0.000000  -0.000000   0.000000
    35  N   -0.000000   0.000000   0.000000   0.000000  -0.000000  -0.000000
    36  C    0.000000  -0.000000   0.000000   0.000000  -0.000000   0.000000
    37  H    0.000000  -0.000000   0.000000  -0.000000  -0.000000  -0.000000
    38  H    0.000000  -0.000000   0.000000  -0.000000  -0.000000  -0.000000
    39  H    0.000000  -0.000000   0.000000  -0.000000   0.000000   0.000000
    40  C   -0.002933   0.000009   0.000003  -0.000110   0.004118  -0.000000
    41  H    0.002643  -0.000002  -0.000000  -0.000007   0.000493  -0.000000
    42  H    0.002645  -0.000002  -0.000000  -0.000007   0.000495  -0.000000
    43  H    0.000013  -0.000000  -0.000000   0.000001  -0.000030  -0.000000
    44  Co  -0.000430  -0.000023   0.000058   0.000008   0.000023   0.000013
              31         32         33         34         35         36
     1  C    0.000000  -0.040358   0.001193  -0.040358   0.001193  -0.000006
     2  C   -0.000000   0.269437   0.005928   0.005951  -0.000031   0.000000
     3  C   -0.000000  -0.070032  -0.000162   0.000051   0.000000   0.000000
     4  C   -0.000000   0.004585   0.000001   0.004585   0.000001  -0.000000
     5  C    0.000000   0.000051   0.000000  -0.070033  -0.000162   0.000002
     6  C   -0.000000   0.005951  -0.000031   0.269439   0.005928  -0.000045
     7  H    0.000000  -0.003995   0.000002   0.000007  -0.000000  -0.000000
     8  H   -0.000000  -0.000096  -0.000000  -0.000096  -0.000000   0.000000
     9  H   -0.000000   0.000007  -0.000000  -0.003995   0.000002  -0.000000
    10  C    0.000000   0.000000   0.000000   0.255671  -0.045758   0.005627
    11  C    0.000000   0.000201   0.000013   0.340235   0.305656  -0.043666
    12  C    0.000000   0.000000   0.000000  -0.038751   0.271483  -0.047426
    13  C   -0.000000  -0.000000  -0.000000  -0.077395   0.009382  -0.000121
    14  C    0.000000  -0.000000  -0.000000   0.008979  -0.083723  -0.002932
    15  C    0.000000   0.000000   0.000000   0.005094  -0.000147   0.000009
    16  H   -0.000000   0.000000   0.000000  -0.004995  -0.000098   0.000003
    17  C    0.000000   0.000000   0.000000  -0.000209   0.005371  -0.000110
    18  H    0.000000  -0.000000  -0.000000  -0.000089  -0.007216   0.004118
    19  H    0.000000   0.000000  -0.000000  -0.000087   0.000004  -0.000000
    20  H    0.000000   0.000000  -0.000000   0.000004  -0.000096  -0.000002
    21  C    0.000898   0.255673  -0.045760   0.000000   0.000000   0.000000
    22  C    0.000003   0.340238   0.305658   0.000201   0.000013   0.000012
    23  C    0.002282  -0.038752   0.271485   0.000000   0.000000   0.000000
    24  C    0.004041  -0.077390   0.009381  -0.000000  -0.000000   0.000000
    25  C   -0.036772   0.008978  -0.083719  -0.000000  -0.000000   0.000000
    26  C   -0.036449   0.005094  -0.000147   0.000000   0.000000  -0.000000
    27  H   -0.000152  -0.004995  -0.000098   0.000000   0.000000   0.000000
    28  C    0.368152  -0.000209   0.005371   0.000000   0.000000   0.000000
    29  H   -0.004266  -0.000089  -0.007215  -0.000000  -0.000000  -0.000000
    30  H   -0.004613  -0.000087   0.000004   0.000000  -0.000000   0.000000
    31  H    0.537816   0.000004  -0.000096   0.000000  -0.000000  -0.000000
    32  N    0.000004   7.206676  -0.055864  -0.000055   0.000000   0.000000
    33  N   -0.000096  -0.055864   7.051477   0.000000  -0.000000  -0.000000
    34  N    0.000000  -0.000055   0.000000   7.206684  -0.055864   0.004489
    35  N   -0.000000   0.000000  -0.000000  -0.055864   7.051487   0.301176
    36  C   -0.000000   0.000000  -0.000000   0.004489   0.301176   5.051187
    37  H    0.000000   0.000000   0.000000  -0.000068  -0.041561   0.377216
    38  H    0.000000   0.000000   0.000000  -0.000068  -0.041566   0.377224
    39  H    0.000000  -0.000000   0.000000   0.000149  -0.032824   0.376790
    40  C   -0.000002   0.004489   0.301176   0.000000  -0.000000   0.000000
    41  H   -0.000000  -0.000068  -0.041567   0.000000   0.000000  -0.000000
    42  H   -0.000000  -0.000068  -0.041561   0.000000   0.000000  -0.000000
    43  H   -0.000000   0.000149  -0.032823  -0.000000   0.000000  -0.000001
    44  Co  -0.000004  -0.076591  -0.053580  -0.076591  -0.053579  -0.003962
              37         38         39         40         41         42
     1  C   -0.000000  -0.000000  -0.000021  -0.000006  -0.000000  -0.000000
     2  C   -0.000000  -0.000000   0.000001  -0.000045   0.000003   0.000003
     3  C    0.000000   0.000000   0.000000   0.000002  -0.000000  -0.000000
     4  C    0.000000   0.000000  -0.000000  -0.000000   0.000000   0.000000
     5  C   -0.000000  -0.000000   0.000000   0.000000   0.000000   0.000000
     6  C    0.000003   0.000003  -0.000009   0.000000  -0.000000  -0.000000
     7  H    0.000000   0.000000   0.000000  -0.000000   0.000000   0.000000
     8  H   -0.000000  -0.000000   0.000000   0.000000  -0.000000  -0.000000
     9  H    0.000000   0.000000   0.000000  -0.000000   0.000000   0.000000
    10  C   -0.000127  -0.000127   0.000014   0.000000  -0.000000  -0.000000
    11  C    0.000744   0.000740  -0.000370   0.000012  -0.000000  -0.000000
    12  C   -0.001158  -0.001154   0.002654   0.000000  -0.000000  -0.000000
    13  C   -0.000008  -0.000008   0.000006   0.000000   0.000000   0.000000
    14  C    0.002645   0.002643   0.000013   0.000000   0.000000   0.000000
    15  C   -0.000002  -0.000002  -0.000000  -0.000000  -0.000000  -0.000000
    16  H   -0.000000  -0.000000  -0.000000   0.000000   0.000000   0.000000
    17  C   -0.000007  -0.000007   0.000001   0.000000  -0.000000  -0.000000
    18  H    0.000495   0.000493  -0.000030  -0.000000  -0.000000  -0.000000
    19  H   -0.000000  -0.000000  -0.000000   0.000000  -0.000000  -0.000000
    20  H   -0.000000  -0.000000  -0.000000  -0.000000   0.000000   0.000000
    21  C   -0.000000  -0.000000  -0.000000   0.005627  -0.000127  -0.000127
    22  C   -0.000000  -0.000000  -0.000001  -0.043666   0.000739   0.000745
    23  C   -0.000000  -0.000000  -0.000000  -0.047425  -0.001153  -0.001158
    24  C    0.000000   0.000000  -0.000000  -0.000121  -0.000008  -0.000008
    25  C    0.000000   0.000000   0.000000  -0.002933   0.002643   0.002645
    26  C   -0.000000  -0.000000  -0.000000   0.000009  -0.000002  -0.000002
    27  H    0.000000   0.000000   0.000000   0.000003  -0.000000  -0.000000
    28  C   -0.000000  -0.000000  -0.000000  -0.000110  -0.000007  -0.000007
    29  H   -0.000000  -0.000000   0.000000   0.004118   0.000493   0.000495
    30  H   -0.000000  -0.000000   0.000000  -0.000000  -0.000000  -0.000000
    31  H    0.000000   0.000000   0.000000  -0.000002  -0.000000  -0.000000
    32  N    0.000000   0.000000  -0.000000   0.004489  -0.000068  -0.000068
    33  N    0.000000   0.000000   0.000000   0.301176  -0.041567  -0.041561
    34  N   -0.000068  -0.000068   0.000149   0.000000   0.000000   0.000000
    35  N   -0.041561  -0.041566  -0.032824  -0.000000   0.000000   0.000000
    36  C    0.377216   0.377224   0.376790   0.000000  -0.000000  -0.000000
    37  H    0.525356  -0.040678  -0.025582  -0.000000  -0.000000   0.000000
    38  H   -0.040678   0.525361  -0.025594  -0.000000   0.000000  -0.000000
    39  H   -0.025582  -0.025594   0.479533  -0.000001   0.000000   0.000000
    40  C   -0.000000  -0.000000  -0.000001   5.051186   0.377224   0.377216
    41  H   -0.000000   0.000000   0.000000   0.377224   0.525362  -0.040678
    42  H    0.000000  -0.000000   0.000000   0.377216  -0.040678   0.525357
    43  H    0.000000   0.000000  -0.000018   0.376790  -0.025595  -0.025581
    44  Co   0.001042   0.001045   0.007971  -0.003962   0.001046   0.001041
              43         44
     1  C   -0.000021   0.256168
     2  C   -0.000009  -0.059157
     3  C    0.000000   0.003961
     4  C   -0.000000   0.003498
     5  C    0.000000   0.003961
     6  C    0.000001  -0.059157
     7  H    0.000000  -0.000660
     8  H    0.000000   0.000121
     9  H    0.000000  -0.000660
    10  C   -0.000000   0.007790
    11  C   -0.000001   0.387400
    12  C   -0.000000   0.004750
    13  C   -0.000000  -0.000476
    14  C    0.000000  -0.000430
    15  C   -0.000000  -0.000023
    16  H    0.000000   0.000058
    17  C   -0.000000   0.000009
    18  H    0.000000   0.000023
    19  H    0.000000   0.000013
    20  H    0.000000  -0.000004
    21  C    0.000014   0.007790
    22  C   -0.000370   0.387400
    23  C    0.002654   0.004750
    24  C    0.000006  -0.000476
    25  C    0.000013  -0.000430
    26  C   -0.000000  -0.000023
    27  H   -0.000000   0.000058
    28  C    0.000001   0.000008
    29  H   -0.000030   0.000023
    30  H   -0.000000   0.000013
    31  H   -0.000000  -0.000004
    32  N    0.000149  -0.076591
    33  N   -0.032823  -0.053580
    34  N   -0.000000  -0.076591
    35  N    0.000000  -0.053579
    36  C   -0.000001  -0.003962
    37  H    0.000000   0.001042
    38  H    0.000000   0.001045
    39  H   -0.000018   0.007971
    40  C    0.376790  -0.003962
    41  H   -0.025595   0.001046
    42  H   -0.025581   0.001041
    43  H    0.479531   0.007971
    44  Co   0.007971  16.342624
          Atomic-Atomic Spin Densities.
               1          2          3          4          5          6
     1  C   -0.384882  -0.006923   0.005733   0.008309   0.005733  -0.006923
     2  C   -0.006923   0.088994   0.003169  -0.002576   0.001376   0.000823
     3  C    0.005733   0.003169  -0.076730  -0.005168   0.000054   0.001376
     4  C    0.008309  -0.002576  -0.005168   0.089407  -0.005167  -0.002576
     5  C    0.005733   0.001376   0.000054  -0.005167  -0.076730   0.003169
     6  C   -0.006923   0.000823   0.001376  -0.002576   0.003169   0.088997
     7  H   -0.000991   0.000478   0.004614   0.001905  -0.000039  -0.000099
     8  H   -0.000155   0.000007  -0.000035   0.000438  -0.000035   0.000007
     9  H   -0.000991  -0.000099  -0.000039   0.001905   0.004614   0.000478
    10  C   -0.000292  -0.000018   0.000001   0.000018   0.000416   0.000213
    11  C    0.006758  -0.000785   0.000006   0.000025  -0.000170  -0.006322
    12  C    0.000074   0.000000   0.000000  -0.000000  -0.000007   0.000021
    13  C    0.000015   0.000000  -0.000000   0.000002  -0.000277  -0.000380
    14  C    0.000000   0.000000  -0.000000  -0.000000  -0.000001  -0.000019
    15  C   -0.000000   0.000000   0.000000  -0.000000   0.000002   0.000006
    16  H   -0.000002  -0.000000  -0.000000   0.000003   0.000086   0.000063
    17  C   -0.000000  -0.000000   0.000000  -0.000000   0.000000   0.000002
    18  H    0.000000  -0.000000   0.000000   0.000000   0.000000   0.000000
    19  H    0.000000   0.000000  -0.000000  -0.000000  -0.000000   0.000000
    20  H   -0.000000   0.000000  -0.000000  -0.000000  -0.000000  -0.000000
    21  C   -0.000292   0.000213   0.000416   0.000018   0.000001  -0.000018
    22  C    0.006758  -0.006322  -0.000170   0.000025   0.000006  -0.000785
    23  C    0.000074   0.000021  -0.000007  -0.000000   0.000000   0.000000
    24  C    0.000015  -0.000380  -0.000277   0.000002  -0.000000   0.000000
    25  C    0.000000  -0.000019  -0.000001  -0.000000  -0.000000   0.000000
    26  C   -0.000000   0.000006   0.000002  -0.000000   0.000000   0.000000
    27  H   -0.000002   0.000063   0.000086   0.000003  -0.000000  -0.000000
    28  C   -0.000000   0.000002   0.000000  -0.000000   0.000000  -0.000000
    29  H    0.000000   0.000000   0.000000   0.000000   0.000000  -0.000000
    30  H    0.000000   0.000000  -0.000000  -0.000000  -0.000000   0.000000
    31  H   -0.000000  -0.000000  -0.000000  -0.000000  -0.000000   0.000000
    32  N    0.002411   0.012253   0.004755   0.000110   0.000045  -0.000151
    33  N   -0.000641   0.000347  -0.000015  -0.000000  -0.000000   0.000003
    34  N    0.002411  -0.000151   0.000045   0.000110   0.004754   0.012254
    35  N   -0.000641   0.000003  -0.000000  -0.000000  -0.000015   0.000347
    36  C   -0.000019   0.000000  -0.000000  -0.000000  -0.000000  -0.000004
    37  H    0.000000  -0.000000   0.000000   0.000000   0.000000  -0.000001
    38  H    0.000000  -0.000000   0.000000   0.000000   0.000000  -0.000001
    39  H    0.000014  -0.000000   0.000000   0.000000   0.000000   0.000000
    40  C   -0.000019  -0.000004  -0.000000  -0.000000  -0.000000   0.000000
    41  H    0.000000  -0.000001   0.000000   0.000000   0.000000  -0.000000
    42  H    0.000000  -0.000001   0.000000   0.000000   0.000000  -0.000000
    43  H    0.000014   0.000000   0.000000   0.000000   0.000000  -0.000000
    44  Co   0.017674  -0.010334  -0.001887   0.000976  -0.001887  -0.010334
               7          8          9         10         11         12
     1  C   -0.000991  -0.000155  -0.000991  -0.000292   0.006758   0.000074
     2  C    0.000478   0.000007  -0.000099  -0.000018  -0.000785   0.000000
     3  C    0.004614  -0.000035  -0.000039   0.000001   0.000006   0.000000
     4  C    0.001905   0.000438   0.001905   0.000018   0.000025  -0.000000
     5  C   -0.000039  -0.000035   0.004614   0.000416  -0.000170  -0.000007
     6  C   -0.000099   0.000007   0.000478   0.000213  -0.006322   0.000021
     7  H   -0.009160  -0.000163  -0.000026  -0.000000   0.000000  -0.000000
     8  H   -0.000163  -0.004305  -0.000163  -0.000000   0.000000   0.000000
     9  H   -0.000026  -0.000163  -0.009160  -0.000135   0.000016   0.000001
    10  C   -0.000000  -0.000000  -0.000135  -0.004301   0.001693  -0.002130
    11  C    0.000000   0.000000   0.000016   0.001693   0.207420  -0.002257
    12  C   -0.000000   0.000000   0.000001  -0.002130  -0.002257  -0.028605
    13  C    0.000000   0.000000   0.000173   0.004436   0.000260   0.000601
    14  C    0.000000   0.000000   0.000001   0.000901   0.000548  -0.000451
    15  C    0.000000   0.000000   0.000005  -0.000763  -0.000027   0.000233
    16  H   -0.000000  -0.000000  -0.000179  -0.000184   0.000000  -0.000006
    17  C   -0.000000  -0.000000  -0.000000   0.000137  -0.000013  -0.000220
    18  H   -0.000000  -0.000000  -0.000000  -0.000010  -0.000003  -0.000077
    19  H   -0.000000  -0.000000  -0.000000   0.000001  -0.000000  -0.000008
    20  H    0.000000   0.000000   0.000000  -0.000004   0.000000   0.000014
    21  C   -0.000135  -0.000000  -0.000000  -0.000000   0.000001  -0.000000
    22  C    0.000016   0.000000   0.000000   0.000001   0.001407   0.000000
    23  C    0.000001   0.000000  -0.000000  -0.000000   0.000000   0.000000
    24  C    0.000173   0.000000   0.000000   0.000000   0.000000   0.000000
    25  C    0.000001   0.000000   0.000000   0.000000   0.000000   0.000000
    26  C    0.000005   0.000000   0.000000  -0.000000  -0.000000   0.000000
    27  H   -0.000179  -0.000000  -0.000000  -0.000000  -0.000000  -0.000000
    28  C   -0.000000  -0.000000  -0.000000  -0.000000  -0.000000  -0.000000
    29  H   -0.000000  -0.000000  -0.000000   0.000000   0.000000  -0.000000
    30  H   -0.000000  -0.000000  -0.000000  -0.000000  -0.000000   0.000000
    31  H    0.000000   0.000000   0.000000   0.000000  -0.000000  -0.000000
    32  N   -0.000701  -0.000002  -0.000002  -0.000000  -0.000049  -0.000000
    33  N    0.000003   0.000000   0.000000   0.000000  -0.000002   0.000000
    34  N   -0.000002  -0.000002  -0.000701  -0.001222  -0.032555   0.001576
    35  N    0.000000   0.000000   0.000003  -0.000718  -0.041159   0.008797
    36  C    0.000000   0.000000   0.000000  -0.000029   0.001083   0.000368
    37  H   -0.000000  -0.000000  -0.000000   0.000003   0.000423  -0.000164
    38  H   -0.000000  -0.000000  -0.000000   0.000003   0.000424  -0.000164
    39  H   -0.000000  -0.000000  -0.000000   0.000000  -0.000779  -0.000064
    40  C    0.000000   0.000000   0.000000   0.000000   0.000000  -0.000000
    41  H   -0.000000  -0.000000  -0.000000   0.000000   0.000000  -0.000000
    42  H   -0.000000  -0.000000  -0.000000   0.000000   0.000000  -0.000000
    43  H   -0.000000  -0.000000  -0.000000  -0.000000  -0.000000   0.000000
    44  Co   0.000401   0.000039   0.000401   0.001405   0.058980   0.000069
              13         14         15         16         17         18
     1  C    0.000015   0.000000  -0.000000  -0.000002  -0.000000   0.000000
     2  C    0.000000   0.000000   0.000000  -0.000000  -0.000000  -0.000000
     3  C   -0.000000  -0.000000   0.000000  -0.000000   0.000000   0.000000
     4  C    0.000002  -0.000000  -0.000000   0.000003  -0.000000   0.000000
     5  C   -0.000277  -0.000001   0.000002   0.000086   0.000000   0.000000
     6  C   -0.000380  -0.000019   0.000006   0.000063   0.000002   0.000000
     7  H    0.000000   0.000000   0.000000  -0.000000  -0.000000  -0.000000
     8  H    0.000000   0.000000   0.000000  -0.000000  -0.000000  -0.000000
     9  H    0.000173   0.000001   0.000005  -0.000179  -0.000000  -0.000000
    10  C    0.004436   0.000901  -0.000763  -0.000184   0.000137  -0.000010
    11  C    0.000260   0.000548  -0.000027   0.000000  -0.000013  -0.000003
    12  C    0.000601  -0.000451   0.000233  -0.000006  -0.000220  -0.000077
    13  C    0.018632   0.000975  -0.009416   0.000254  -0.001111  -0.000005
    14  C    0.000975   0.052243  -0.002161  -0.000001  -0.006316   0.000082
    15  C   -0.009416  -0.002161   0.031164   0.000004   0.005733  -0.000003
[...]
    42 H(1)   Bbb    -0.0025    -1.348    -0.481    -0.450 -0.6459  0.7121  0.2751
              Bcc     0.0065     3.460     1.235     1.154  0.7630  0.6133  0.2039
 
              Baa    -0.0078    -4.138    -1.477    -1.380  0.0002 -0.0003  1.0000
    43 H(1)   Bbb    -0.0066    -3.535    -1.261    -1.179  0.7453 -0.6667 -0.0004
              Bcc     0.0144     7.673     2.738     2.560  0.6667  0.7453  0.0001
 
              Baa    -0.7519   -94.950   -33.881   -31.672  1.0000  0.0000  0.0000
    44 Co(59) Bbb    -0.1611   -20.346    -7.260    -6.787 -0.0000  1.0000 -0.0000
              Bcc     0.9130   115.296    41.141    38.459 -0.0000  0.0000  1.0000
 

 ---------------------------------------------------------------------------------

   1 Symmetry operations used in ECPInt.
 ECPInt:  NShTT=   11781 NPrTT=   71406 LenC2=    9490 LenP2D=   31926.
 LDataN:  DoStor=T MaxTD1= 7 Len=  274
 Calling FoFJK, ICntrl=      2127 FMM=F ISym2X=0 I1Cent= 0 IOpClX= 1 NMat=1 NMatS=1 NMatT=0.
 -------------------------------------------------------------------
 Center     Atomic                   Forces (Hartrees/Bohr)
 Number     Number              X              Y              Z
 -------------------------------------------------------------------
      1        6           0.000005062   -0.070329518    0.000002932
      2        6           0.053144006    0.031150422    0.000000191
      3        6          -0.004891934    0.002756811   -0.000000350
      4        6          -0.000006082    0.002275210    0.000000646
      5        6           0.004902405    0.002759101   -0.000000358
      6        6          -0.053156699    0.031146854   -0.000000352
      7        1          -0.000842794    0.003212696    0.000000281
      8        1           0.000000321    0.000072028   -0.000001031
      9        1           0.000839720    0.003211179    0.000000041
     10        6          -0.009335580   -0.005755508    0.000002510
     11        6           0.001338066    0.003906115   -0.000007768
     12        6           0.009988196    0.004727918    0.000000683
     13        6           0.009274990    0.004163878   -0.000000449
     14        6           0.000609352    0.003918649    0.000000121
     15        6          -0.010246040    0.005035394    0.000000423
     16        1          -0.000617676    0.000088235   -0.000000425
     17        6          -0.000277466   -0.008540474   -0.000000134
     18        1          -0.000244031   -0.000490469   -0.000000111
     19        1           0.000190211    0.000486040   -0.000000479
     20        1          -0.000429928   -0.000358386    0.000000116
     21        6           0.009324598   -0.005706438    0.000002096
     22        6          -0.001337004    0.003904462   -0.000009988
     23        6          -0.010033346    0.004699004    0.000000693
     24        6          -0.009276843    0.004119397   -0.000000021
     25        6          -0.000579728    0.003953070   -0.000000198
     26        6           0.010263195    0.005080913   -0.000000233
     27        1           0.000621557    0.000101334   -0.000000278
     28        6           0.000259815   -0.008585259   -0.000000167
     29        1           0.000238200   -0.000503163   -0.000000581
     30        1          -0.000187593    0.000478820   -0.000000360
     31        1           0.000437395   -0.000354612    0.000000071
     32        7          -0.016584946   -0.046282122    0.000001251
     33        7           0.021164007    0.016672184    0.000007064
     34        7           0.016597606   -0.046277823   -0.000000286
     35        7          -0.021148655    0.016673243    0.000004791
     36        6          -0.000067857   -0.007940662   -0.000001683
     37        1           0.000472799    0.001888462    0.000545804
     38        1           0.000471752    0.001889268   -0.000546120
     39        1           0.000440874    0.001183609    0.000001175
     40        6           0.000062844   -0.007939584   -0.000001642
     41        1          -0.000471135    0.001888942   -0.000546629
     42        1          -0.000472632    0.001888382    0.000546056
     43        1          -0.000439511    0.001184216    0.000001396
     44       27           0.000000513    0.044548183    0.000001301
 -------------------------------------------------------------------
 Cartesian Forces:  Max     0.070329518 RMS     0.012971484

 GradGradGradGradGradGradGradGradGradGradGradGradGradGradGradGradGradGrad
 Berny optimization.
 Search for a local minimum.
 Step number   1 out of a maximum of    2
 All quantities printed in internal units (Hartrees-Bohrs-Radians)
 Second derivative matrix not updated -- first step.
 ITU=  0
     Eigenvalues ---    0.00053   0.00055   0.00195   0.00240   0.00243
     Eigenvalues ---    0.00378   0.00438   0.00608   0.00650   0.00662
     Eigenvalues ---    0.00664   0.00814   0.00841   0.01316   0.01550
     Eigenvalues ---    0.01790   0.02015   0.02047   0.02541   0.02547
     Eigenvalues ---    0.03036   0.03096   0.04100   0.04199   0.04392
     Eigenvalues ---    0.04477   0.04667   0.05371   0.05521   0.06089
     Eigenvalues ---    0.06142   0.06891   0.06925   0.07032   0.07057
     Eigenvalues ---    0.07060   0.07247   0.07692   0.07761   0.09578
     Eigenvalues ---    0.09817   0.10081   0.10331   0.11476   0.11880
     Eigenvalues ---    0.11938   0.12078   0.12179   0.12801   0.13320
     Eigenvalues ---    0.13329   0.13405   0.13617   0.14677   0.15369
     Eigenvalues ---    0.15381   0.15861   0.19272   0.19734   0.19982
     Eigenvalues ---    0.20954   0.21873   0.23990   0.24405   0.28480
     Eigenvalues ---    0.29424   0.29458   0.30218   0.30591   0.31506
     Eigenvalues ---    0.31704   0.34630   0.35510   0.36269   0.37107
     Eigenvalues ---    0.37460   0.41042   0.41518   0.44248   0.46594
     Eigenvalues ---    0.48085   0.48274   0.49288   0.50871   0.51087
     Eigenvalues ---    0.53489   0.53511   0.53678   0.60305   0.62569
     Eigenvalues ---    0.68436   0.71262   0.72566   0.73641   0.86433
     Eigenvalues ---    0.90064   0.90621   0.90973   0.92662   0.94072
     Eigenvalues ---    0.95013   0.96701   0.99747   1.03878   1.12067
     Eigenvalues ---    1.15467   1.15654   1.18075   1.20444   1.23711
     Eigenvalues ---    1.30233   1.37595   1.37644   1.45353   1.46712
     Eigenvalues ---    1.49256   1.50435   1.52781   1.60114   1.63658
     Eigenvalues ---    1.65027   1.66142   1.77096   1.78281   1.83326
     Eigenvalues ---    1.86886
 Quadratic step=6.963D-01 exceeds max=3.000D-01 adjusted using Lamda=-2.819D-02.
 Angle between NR and scaled steps=  32.21 degrees.
 Angle between quadratic step and forces=  51.78 degrees.
 Linear search not attempted -- first point.
 B after Tr=    -0.000000   -0.000778   -0.000000
         Rot=    1.000000   -0.000000   -0.000000    0.000000 Ang=  -0.00 deg.
 Variable       Old X    -DE/DX   Delta X   Delta X   Delta X     New X
                                 (Linear)    (Quad)   (Total)
    X1        0.00000   0.00001   0.00000   0.00000   0.00000   0.00000
    Y1        1.50861  -0.07033   0.00000  -0.13864  -0.13942   1.36920
    Z1        0.00016   0.00000   0.00000   0.00000   0.00000   0.00016
    X2       -2.43261   0.05314   0.00000   0.07841   0.07841  -2.35420
    Y2        2.55951   0.03115   0.00000  -0.02225  -0.02302   2.53648
    Z2        0.00008   0.00000   0.00000   0.00000   0.00000   0.00008
    X3       -2.35700  -0.00489   0.00000   0.02181   0.02181  -2.33519
    Y3        5.19855   0.00276   0.00000  -0.00604  -0.00682   5.19173
    Z3       -0.00001  -0.00000   0.00000   0.00001   0.00001  -0.00000
    X4        0.00001  -0.00001   0.00000  -0.00001  -0.00001   0.00000
    Y4        6.41513   0.00228   0.00000   0.01860   0.01782   6.43295
    Z4       -0.00001   0.00000   0.00000   0.00000   0.00000  -0.00000
    X5        2.35700   0.00490   0.00000  -0.02181  -0.02181   2.33519
    Y5        5.19855   0.00276   0.00000  -0.00604  -0.00682   5.19173
    Z5        0.00006  -0.00000   0.00000   0.00000   0.00000   0.00007
    X6        2.43263  -0.05316   0.00000  -0.07842  -0.07842   2.35422
    Y6        2.55951   0.03115   0.00000  -0.02225  -0.02303   2.53648
    Z6        0.00014  -0.00000   0.00000  -0.00000  -0.00000   0.00014
    X7       -4.06767  -0.00084   0.00000   0.01200   0.01200  -4.05567
    Y7        6.32186   0.00321   0.00000  -0.00638  -0.00716   6.31470
    Z7       -0.00009   0.00000   0.00000   0.00001   0.00001  -0.00008
    X8        0.00000   0.00000   0.00000  -0.00000  -0.00000   0.00000
    Y8        8.46836   0.00007   0.00000   0.01744   0.01666   8.48502
    Z8       -0.00003  -0.00000   0.00000  -0.00002  -0.00001  -0.00005
    X9        4.06768   0.00084   0.00000  -0.01201  -0.01201   4.05567
    Y9        6.32186   0.00321   0.00000  -0.00638  -0.00716   6.31470
    Z9        0.00005   0.00000   0.00000   0.00000   0.00000   0.00005
   X10        7.01523  -0.00934   0.00000  -0.04059  -0.04059   6.97464
   Y10        1.10342  -0.00576   0.00000  -0.01122  -0.01200   1.09143
   Z10       -0.00008   0.00000   0.00000   0.00001   0.00001  -0.00007
   X11        3.66244   0.00134   0.00000  -0.04190  -0.04190   3.62054
   Y11       -1.72637   0.00391   0.00000   0.00461   0.00383  -1.72254
   Z11        0.00027  -0.00001   0.00000  -0.00004  -0.00004   0.00023
   X12        7.95918   0.00999   0.00000  -0.02522  -0.02522   7.93396
   Y12       -1.40005   0.00473   0.00000   0.00742   0.00664  -1.39340
   Z12       -0.00019   0.00000   0.00000   0.00002   0.00001  -0.00017
   X13        8.64579   0.00927   0.00000  -0.03293  -0.03293   8.61287
   Y13        3.14228   0.00416   0.00000   0.00186   0.00108   3.14336
   Z13       -0.00015  -0.00000   0.00000   0.00001   0.00001  -0.00014
   X14       10.54458   0.00061   0.00000  -0.02705  -0.02705  10.51753
   Y14       -1.87839   0.00392   0.00000   0.00201   0.00123  -1.87716
   Z14       -0.00038   0.00000   0.00000   0.00001   0.00001  -0.00037
   X15       11.26088  -0.01025   0.00000  -0.04332  -0.04332  11.21756
   Y15        2.65533   0.00504   0.00000   0.00187   0.00109   2.65642
   Z15       -0.00035   0.00000   0.00000   0.00000   0.00000  -0.00034
   X16        7.96367  -0.00062   0.00000  -0.03018  -0.03018   7.93349
   Y16        5.07205   0.00009   0.00000   0.00267   0.00189   5.07394
   Z16       -0.00002  -0.00000   0.00000  -0.00001  -0.00001  -0.00002
   X17       12.18377  -0.00028   0.00000  -0.03110  -0.03110  12.15267
   Y17        0.20393  -0.00854   0.00000  -0.00651  -0.00729   0.19664
   Z17       -0.00047  -0.00000   0.00000   0.00001   0.00001  -0.00046
   X18       11.27441  -0.00024   0.00000  -0.02583  -0.02583  11.24857
   Y18       -3.79455  -0.00049   0.00000   0.00056  -0.00022  -3.79477
   Z18       -0.00043  -0.00000   0.00000   0.00001   0.00000  -0.00042
   X19       12.56407   0.00019   0.00000  -0.03675  -0.03675  12.52733
   Y19        4.23805   0.00049   0.00000   0.00066  -0.00012   4.23793
   Z19       -0.00037  -0.00000   0.00000  -0.00001  -0.00001  -0.00039
   X20       14.21192  -0.00043   0.00000  -0.02974  -0.02974  14.18218
   Y20       -0.11644  -0.00036   0.00000  -0.00576  -0.00654  -0.12298
   Z20       -0.00062   0.00000   0.00000   0.00000   0.00000  -0.00061
   X21       -7.01521   0.00932   0.00000   0.04058   0.04058  -6.97464
   Y21        1.10338  -0.00571   0.00000  -0.01119  -0.01196   1.09141
   Z21       -0.00010   0.00000   0.00000   0.00002   0.00002  -0.00008
   X22       -3.66243  -0.00134   0.00000   0.04191   0.04191  -3.62053
   Y22       -1.72637   0.00390   0.00000   0.00461   0.00383  -1.72254
   Z22        0.00021  -0.00001   0.00000  -0.00004  -0.00004   0.00018
   X23       -7.95914  -0.01003   0.00000   0.02519   0.02519  -7.93395
   Y23       -1.40003   0.00470   0.00000   0.00741   0.00663  -1.39341
   Z23       -0.00016   0.00000   0.00000   0.00002   0.00002  -0.00014
   X24       -8.64579  -0.00928   0.00000   0.03292   0.03292  -8.61286
   Y24        3.14230   0.00412   0.00000   0.00184   0.00107   3.14336
   Z24       -0.00014  -0.00000   0.00000   0.00001   0.00001  -0.00013
   X25      -10.54459  -0.00058   0.00000   0.02706   0.02706 -10.51753
   Y25       -1.87844   0.00395   0.00000   0.00203   0.00125  -1.87719
   Z25       -0.00021  -0.00000   0.00000   0.00001   0.00000  -0.00021
   X26      -11.26089   0.01026   0.00000   0.04334   0.04334 -11.21755
   Y26        2.65527   0.00508   0.00000   0.00190   0.00112   2.65640
   Z26       -0.00021  -0.00000   0.00000  -0.00000  -0.00000  -0.00021
   X27       -7.96367   0.00062   0.00000   0.03019   0.03019  -7.93348
   Y27        5.07203   0.00010   0.00000   0.00269   0.00191   5.07393
   Z27       -0.00006  -0.00000   0.00000  -0.00000  -0.00000  -0.00006
   X28      -12.18375   0.00026   0.00000   0.03110   0.03110 -12.15266
   Y28        0.20394  -0.00859   0.00000  -0.00654  -0.00732   0.19662
   Z28       -0.00025  -0.00000   0.00000  -0.00000  -0.00000  -0.00025
   X29      -11.27439   0.00024   0.00000   0.02583   0.02583 -11.24856
   Y29       -3.79456  -0.00050   0.00000   0.00054  -0.00024  -3.79480
   Z29       -0.00018  -0.00000   0.00000  -0.00001  -0.00001  -0.00018
   X30      -12.56407  -0.00019   0.00000   0.03676   0.03676 -12.52731
   Y30        4.23803   0.00048   0.00000   0.00066  -0.00012   4.23792
   Z30       -0.00021  -0.00000   0.00000  -0.00001  -0.00001  -0.00022
   X31      -14.21192   0.00044   0.00000   0.02975   0.02975 -14.18217
   Y31       -0.11647  -0.00035   0.00000  -0.00577  -0.00655  -0.12301
   Z31       -0.00029   0.00000   0.00000  -0.00000  -0.00000  -0.00029
   X32       -4.38591  -0.01658   0.00000   0.03533   0.03533  -4.35059
   Y32        0.88767  -0.04628   0.00000  -0.04966  -0.05043   0.83723
   Z32        0.00010   0.00000   0.00000   0.00000   0.00000   0.00010
   X33       -5.94314   0.02116   0.00000   0.05639   0.05639  -5.88675
   Y33       -3.03302   0.01667   0.00000   0.02572   0.02495  -3.00807
   Z33       -0.00007   0.00001   0.00000   0.00002   0.00001  -0.00005
   X34        4.38591   0.01660   0.00000  -0.03532  -0.03532   4.35059
   Y34        0.88767  -0.04628   0.00000  -0.04966  -0.05044   0.83724
   Z34        0.00019  -0.00000   0.00000  -0.00001  -0.00001   0.00018
   X35        5.94314  -0.02115   0.00000  -0.05638  -0.05638   5.88676
   Y35       -3.03301   0.01667   0.00000   0.02572   0.02495  -3.00806
   Z35       -0.00002   0.00000   0.00000   0.00000   0.00000  -0.00002
   X36        6.10501  -0.00007   0.00000  -0.02598  -0.02598   6.07903
   Y36       -5.72815  -0.00794   0.00000   0.01407   0.01329  -5.71486
   Z36        0.00003  -0.00000   0.00000  -0.00000  -0.00000   0.00003
   X37        7.08262   0.00047   0.00000  -0.00682  -0.00683   7.07579
   Y37       -6.43937   0.00189   0.00000   0.03778   0.03701  -6.40236
   Z37       -1.68600   0.00055   0.00000   0.00241   0.00241  -1.68359
   X38        7.08159   0.00047   0.00000  -0.00684  -0.00684   7.07475
   Y38       -6.43946   0.00189   0.00000   0.03778   0.03700  -6.40246
   Z38        1.68663  -0.00055   0.00000  -0.00240  -0.00240   1.68422
   X39        4.18777   0.00044   0.00000  -0.01538  -0.01538   4.17239
   Y39       -6.49755   0.00118   0.00000  -0.00236  -0.00314  -6.50069
   Z39       -0.00062   0.00000   0.00000   0.00000   0.00000  -0.00062
   X40       -6.10499   0.00006   0.00000   0.02598   0.02598  -6.07901
   Y40       -5.72816  -0.00794   0.00000   0.01407   0.01329  -5.71486
   Z40        0.00010  -0.00000   0.00000   0.00000  -0.00000   0.00010
   X41       -7.08143  -0.00047   0.00000   0.00684   0.00684  -7.07460
   Y41       -6.43941   0.00189   0.00000   0.03777   0.03700  -6.40241
   Z41        1.68680  -0.00055   0.00000  -0.00240  -0.00240   1.68439
   X42       -7.08274  -0.00047   0.00000   0.00682   0.00682  -7.07591
   Y42       -6.43943   0.00189   0.00000   0.03779   0.03701  -6.40242
   Z42       -1.68583   0.00055   0.00000   0.00241   0.00241  -1.68341
   X43       -4.18776  -0.00044   0.00000   0.01538   0.01538  -4.17238
   Y43       -6.49756   0.00118   0.00000  -0.00235  -0.00313  -6.50069
   Z43       -0.00069   0.00000   0.00000   0.00001   0.00000  -0.00068
   X44       -0.00000   0.00000   0.00000   0.00000   0.00000   0.00000
   Y44       -2.37828   0.04455   0.00000   0.08312   0.08234  -2.29594
   Z44        0.00027   0.00000   0.00000  -0.00003  -0.00003   0.00024
         Item               Value     Threshold  Converged?
 Maximum Force            0.070330     0.000450     NO 
 RMS     Force            0.012971     0.000300     NO 
 Maximum Displacement     0.139416     0.001800     NO 
 RMS     Displacement     0.026157     0.001200     NO 
 Predicted change in Energy=-1.512818D-02
 GradGradGradGradGradGradGradGradGradGradGradGradGradGradGradGradGradGrad

 Unable to Open any file for archive entry.
 1\1\GINC-X11P1N5\Force\UPBE1PBE\GenECP\C22H17Co1N4(3)\MAYUMIAO\17-Jul-
 2024\0\\# pbe1pbe em=gd3bj genecp g09default scf=(xqc,maxcycle=64) for
 ce guess=read nosymm\\Title Card\\0,3\C,0.00000032,0.79832316,0.000084
 79\C,-1.28728431,1.35443284,0.00004286\C,-1.24726999,2.75095462,-0.000
 0052\C,0.00000449,3.39474116,-0.00000374\C,1.24726971,2.75095387,0.000
 0325\C,1.2872942,1.35443556,0.00007162\H,-2.15251793,3.34538364,-0.000
 04988\H,0.00000248,4.48126078,-0.00001817\H,2.15252354,3.34538366,0.00
 002543\C,3.71229863,0.5839065,-0.00004268\C,1.93807844,-0.91355616,0.0
 0014062\C,4.2118184,-0.74087213,-0.00009965\C,4.57515716,1.66282221,-0
 .00007897\C,5.57995095,-0.99400362,-0.00020158\C,5.95900365,1.40513819
 ,-0.00018263\H,4.21419138,2.68401203,-0.00000867\C,6.44737484,0.107912
 69,-0.00024896\H,5.9661588,-2.00798737,-0.00022584\H,6.64862158,2.2426
 7798,-0.00019837\H,7.52062614,-0.06161881,-0.00032612\C,-3.71229113,0.
 5838821,-0.00005386\C,-1.93807638,-0.91355713,0.00011299\C,-4.21179633
 ,-0.74086657,-0.0000842\C,-4.57515399,1.66283259,-0.00007169\C,-5.5799
 578,-0.99402593,-0.00011207\C,-5.95900631,1.40511041,-0.00011191\H,-4.
 21419182,2.68400113,-0.00002982\C,-6.44736365,0.10791897,-0.00013229\H
 ,-5.96614906,-2.00799245,-0.00009262\H,-6.64861901,2.2426694,-0.000111
 74\H,-7.52062467,-0.06163217,-0.00015131\N,-2.3209262,0.46973386,0.000
 05122\N,-3.1449757,-1.60500246,-0.00003564\N,2.32092514,0.46973538,0.0
 0009841\N,3.14497485,-1.60499832,-0.00000941\C,3.23063218,-3.03120422,
 0.00001653\H,3.74795921,-3.40756522,-0.89219108\H,3.74741428,-3.407616
 4,0.89252387\H,2.21607422,-3.43835319,-0.0003267\C,-3.23062141,-3.0312
 0959,0.00005116\H,-3.74733395,-3.40758945,0.89261421\H,-3.74802311,-3.
 40760139,-0.89210038\H,-2.21606614,-3.43835956,-0.00036465\Co,-0.00000
 048,-1.25853326,0.0001432\\Version=ES64L-G16RevC.01\HF=-1212.1124139\S
 2=2.338466\S2-1=0.\S2A=2.008739\RMSD=6.155e-09\RMSF=1.297e-02\Dipole=0
 .0000628,-1.3302873,-0.0000192\Quadrupole=8.8456586,10.7306976,-19.576
 3562,0.0002032,-0.0003649,-0.0001899\PG=C01 [X(C22H17Co1N4)]\\@
 The archive entry for this job was punched.


 THESE ARE THE TIMES THAT TRY MENS SOULS.
 THE SUMMER SOLDIER AND THE SUNSHINE PATRIOT WILL IN THIS CRISIS,
 SHRINK FROM THE SERVICE OF HIS COUNTRY.  BUT HE THAT STANDS NOW,
 DESERVES THE LOVE AND THANKS OF MAN AND WOMAN.
 TYRANNY, LIKE HELL, IS NOT EASILY CONQUERED,
 YET WE HAVE THIS CONSOLATION WITH US,
 THAT THE HARDER THE CONFLICT, THE MORE GLORIOUS THE TRIUMPH.
 WHAT WE OBTAIN TOO CHEAP, WE ESTEEM TOO LIGHTLY, 
 'TIS DEARNESS ONLY THAT GIVES EVERYTHING ITS VALUE.

                                              -- TOM PAINE
 Job cpu time:       0 days  0 hours 34 minutes 23.0 seconds.
 Elapsed time:       0 days  0 hours  0 minutes 37.5 seconds.
 File lengths (MBytes):  RWF=    184 Int=      0 D2E=      0 Chk=     72 Scr=      1
 Normal termination of Gaussian 16 at Wed Jul 17 21:30:02 2024.
