 Entering Gaussian System, Link 0=g16
 Input=JOBS/39_B.gjf
 Output=JOBS/39_B.log
 Initial command:
 /data/app/gaussian/C01-avx2//g16/l1.exe "/tmp/Gau-2104544.inp" -scrdir="/tmp/"
 Entering Link 1 = /data/app/gaussian/C01-avx2//g16/l1.exe PID=   2104545.
  
 Copyright (c) 1988-2019, Gaussian, Inc.  All Rights Reserved.
  
 This is part of the Gaussian(R) 16 program.  It is based on
 the Gaussian(R) 09 system (copyright 2009, Gaussian, Inc.),
 the Gaussian(R) 03 system (copyright 2003, Gaussian, Inc.),
 the Gaussian(R) 98 system (copyright 1998, Gaussian, Inc.),
 the Gaussian(R) 94 system (copyright 1995, Gaussian, Inc.),
 the Gaussian 92(TM) system (copyright 1992, Gaussian, Inc.),
 the Gaussian 90(TM) system (copyright 1990, Gaussian, Inc.),
 the Gaussian 88(TM) system (copyright 1988, Gaussian, Inc.),
 the Gaussian 86(TM) system (copyright 1986, Carnegie Mellon
 University), and the Gaussian 82(TM) system (copyright 1983,
 Carnegie Mellon University). Gaussian is a federally registered
 trademark of Gaussian, Inc.
  
 This software contains proprietary and confidential information,
 including trade secrets, belonging to Gaussian, Inc.
  
 This software is provided under written license and may be
 used, copied, transmitted, or stored only in accord with that
 written license.
  
 The following legend is applicable only to US Government
 contracts under FAR:
  
                    RESTRICTED RIGHTS LEGEND
  
 Use, reproduction and disclosure by the US Government is
 subject to restrictions as set forth in subparagraphs (a)
 and (c) of the Commercial Computer Software - Restricted
 Rights clause in FAR 52.227-19.
  
 Gaussian, Inc.
 340 Quinnipiac St., Bldg. 40, Wallingford CT 06492
  
  
 ---------------------------------------------------------------
 Warning -- This program may not be used in any manner that
 competes with the business of Gaussian, Inc. or will provide
 assistance to any competitor of Gaussian, Inc.  The licensee
 of this program is prohibited from giving any competitor of
 Gaussian, Inc. access to this program.  By using this program,
 the user acknowledges that Gaussian, Inc. is engaged in the
 business of creating and licensing software in the field of
 computational chemistry and represents and warrants to the
 licensee that it is not a competitor of Gaussian, Inc. and that
 it will not use this program in any manner prohibited above.
 ---------------------------------------------------------------
  

 Cite this work as:
 Gaussian 16, Revision C.01,
 M. J. Frisch, G. W. Trucks, H. B. Schlegel, G. E. Scuseria, 
 M. A. Robb, J. R. Cheeseman, G. Scalmani, V. Barone, 
 G. A. Petersson, H. Nakatsuji, X. Li, M. Caricato, A. V. Marenich, 
 J. Bloino, B. G. Janesko, R. Gomperts, B. Mennucci, H. P. Hratchian, 
 J. V. Ortiz, A. F. Izmaylov, J. L. Sonnenberg, D. Williams-Young, 
 F. Ding, F. Lipparini, F. Egidi, J. Goings, B. Peng, A. Petrone, 
 T. Henderson, D. Ranasinghe, V. G. Zakrzewski, J. Gao, N. Rega, 
 G. Zheng, W. Liang, M. Hada, M. Ehara, K. Toyota, R. Fukuda, 
 J. Hasegawa, M. Ishida, T. Nakajima, Y. Honda, O. Kitao, H. Nakai, 
 T. Vreven, K. Throssell, J. A. Montgomery, Jr., J. E. Peralta, 
 F. Ogliaro, M. J. Bearpark, J. J. Heyd, E. N. Brothers, K. N. Kudin, 
 V. N. Staroverov, T. A. Keith, R. Kobayashi, J. Normand, 
 K. Raghavachari, A. P. Rendell, J. C. Burant, S. S. Iyengar, 
 J. Tomasi, M. Cossi, J. M. Millam, M. Klene, C. Adamo, R. Cammi, 
 J. W. Ochterski, R. L. Martin, K. Morokuma, O. Farkas, 
 J. B. Foresman, and D. J. Fox, Gaussian, Inc., Wallingford CT, 2019.
 
 ******************************************
 Gaussian 16:  ES64L-G16RevC.01  3-Jul-2019
                17-Jul-2024 
 ******************************************
 %chk=b.chk
 %nprocshared=56
 Will use up to   56 processors via shared memory.
 %mem=96gb
 ----------------------------------------------------------------------
 # pbe1pbe em=gd3bj genecp g09default scf=(xqc,maxcycle=64) force guess
 =read nosymm
 ----------------------------------------------------------------------
 1/10=7,30=1,38=1,158=3,167=1/1,3;
 2/12=2,15=1,17=6,18=5,40=1/2;
 3/5=7,11=2,16=1,17=8,25=1,27=10,30=1,71=1,74=-13,75=-4,116=-2,124=41,158=3/1,2,3;
 4/5=1,60=-1/1;
 5/5=2,7=64,8=3,13=1,38=6,87=10/2,8;
 6/7=2,8=2,9=2,10=2,28=1,87=10/1;
 7/29=1,30=1,87=10/1,2,3,16;
 1/10=7,30=1,158=3,167=1/3;
 99//99;
 Using 2006 physical constants.
 ----------
 Title Card
 ----------
 Symbolic Z-matrix:
 Charge =  0 Multiplicity = 3
 6                     0.        0.79759   0.0001 
 6                    -1.2888    1.35263   0.00004 
 6                    -1.24766   2.74856  0. 
 6                     0.        3.39084  0. 
 6                     1.24767   2.74856   0.00003 
 6                     1.2888    1.35263   0.00007 
 1                    -2.15218   3.34426  -0.00005 
 1                     0.        4.47699  -0.00002 
 1                     2.15218   3.34426   0.00002 
 6                     3.71518   0.58459  -0.00004 
 6                     1.94058  -0.9138    0.00014 
 6                     4.21476  -0.74061  -0.0001 
 6                     4.5786    1.66353  -0.00008 
 6                     5.58326  -0.99306  -0.0002 
 6                     5.9625    1.40578  -0.00019 
 1                     4.21882   2.68498  -0.00001 
 6                     6.45046   0.10841  -0.00025 
 1                     5.97045  -2.00724  -0.00022 
 1                     6.65242   2.24337  -0.0002 
 1                     7.5239   -0.06092  -0.00033 
 6                    -3.71518   0.58461  -0.00005 
 6                    -1.94058  -0.91381   0.00012 
 6                    -4.21478  -0.74063  -0.00008 
 6                    -4.5786    1.66349  -0.00007 
 6                    -5.58323  -0.99305  -0.00011 
 6                    -5.96249   1.4058   -0.00011 
 1                    -4.21882   2.68499  -0.00003 
 6                    -6.45046   0.10837  -0.00013 
 1                    -5.97044  -2.00726  -0.00009 
 1                    -6.65242   2.24336  -0.00011 
 1                    -7.5239   -0.06093  -0.00015 
 7                    -2.3231    0.47009   0.00006 
 7                    -3.14789  -1.60476  -0.00003 
 7                     2.32311   0.4701    0.0001 
 7                     3.14791  -1.60475  -0.00001 
 6                     3.23518  -3.03095   0.00002 
 1                     3.75282  -3.4067   -0.89219 
 1                     3.75226  -3.40675   0.89253 
 1                     2.22113  -3.43979  -0.00034 
 6                    -3.23518  -3.03096   0.00005 
 1                    -3.75218  -3.40672   0.89263 
 1                    -3.75289  -3.40673  -0.8921 
 1                    -2.22112  -3.4398   -0.00038 
 27                   0.        -1.2545    0.00014 
 

 GradGradGradGradGradGradGradGradGradGradGradGradGradGradGradGradGradGrad
 Berny optimization.
 Initialization pass.
 Trust Radius=3.00D-01 FncErr=1.00D-07 GrdErr=1.00D-07 EigMax=2.50D+02 EigMin=1.00D-04
 Number of steps in this run=      2 maximum allowed number of steps=      2.
 GradGradGradGradGradGradGradGradGradGradGradGradGradGradGradGradGradGrad

                          Input orientation:                          
 ---------------------------------------------------------------------
 Center     Atomic      Atomic             Coordinates (Angstroms)
 Number     Number       Type             X           Y           Z
 ---------------------------------------------------------------------
      1          6           0        0.000004    0.797592    0.000098
      2          6           0       -1.288799    1.352632    0.000042
      3          6           0       -1.247661    2.748555   -0.000005
      4          6           0        0.000000    3.390836   -0.000003
      5          6           0        1.247668    2.748558    0.000031
      6          6           0        1.288798    1.352630    0.000069
      7          1           0       -2.152181    3.344264   -0.000051
      8          1           0        0.000003    4.476991   -0.000022
      9          1           0        2.152184    3.344263    0.000022
     10          6           0        3.715179    0.584588   -0.000043
     11          6           0        1.940583   -0.913805    0.000143
     12          6           0        4.214755   -0.740607   -0.000098
     13          6           0        4.578601    1.663526   -0.000082
     14          6           0        5.583257   -0.993059   -0.000202
     15          6           0        5.962505    1.405784   -0.000185
     16          1           0        4.218819    2.684984   -0.000012
     17          6           0        6.450456    0.108409   -0.000250
     18          1           0        5.970447   -2.007245   -0.000223
     19          1           0        6.652424    2.243371   -0.000199
     20          1           0        7.523904   -0.060918   -0.000325
     21          6           0       -3.715185    0.584613   -0.000054
     22          6           0       -1.940582   -0.913807    0.000116
     23          6           0       -4.214778   -0.740630   -0.000084
     24          6           0       -4.578598    1.663492   -0.000074
     25          6           0       -5.583235   -0.993048   -0.000114
     26          6           0       -5.962491    1.405800   -0.000115
     27          1           0       -4.218816    2.684987   -0.000031
     28          6           0       -6.450462    0.108372   -0.000134
     29          1           0       -5.970443   -2.007263   -0.000092
     30          1           0       -6.652418    2.243355   -0.000112
     31          1           0       -7.523895   -0.060928   -0.000151
     32          7           0       -2.323102    0.470094    0.000057
     33          7           0       -3.147892   -1.604758   -0.000033
     34          7           0        2.323114    0.470101    0.000102
     35          7           0        3.147909   -1.604754   -0.000006
     36          6           0        3.235184   -3.030952    0.000017
     37          1           0        3.752825   -3.406695   -0.892193
     38          1           0        3.752264   -3.406754    0.892535
     39          1           0        2.221133   -3.439791   -0.000337
     40          6           0       -3.235178   -3.030956    0.000052
     41          1           0       -3.752182   -3.406725    0.892626
     42          1           0       -3.752889   -3.406731   -0.892101
     43          1           0       -2.221123   -3.439797   -0.000376
     44         27           0       -0.000000   -1.254499    0.000135
 ---------------------------------------------------------------------
                    Distance matrix (angstroms):
                    1          2          3          4          5
     1  C    0.000000
     2  C    1.403240   0.000000
     3  C    2.315799   1.396530   0.000000
     4  C    2.593244   2.411489   1.403276   0.000000
     5  C    2.315800   2.895216   2.495329   1.403281   0.000000
     6  C    1.403231   2.577597   2.895208   2.411490   1.396534
     7  H    3.334282   2.170721   1.083063   2.152685   3.451643
     8  H    3.679399   3.379739   2.131703   1.086155   2.131701
     9  H    3.334278   3.975796   3.451639   2.152687   1.083057
    10  C    3.721276   5.062577   5.414105   4.655920   3.281978
    11  C    2.587416   3.945331   4.855695   4.721842   3.727335
    12  C    4.486667   5.888188   6.481685   5.901948   4.580161
    13  C    4.659762   5.875630   5.926433   4.893586   3.503199
    14  C    5.863373   7.261364   7.788525   7.098683   5.726869
    15  C    5.993439   7.251498   7.334134   6.284257   4.902318
    16  H    4.621758   5.666482   5.466850   4.277460   2.971831
    17  C    6.487164   7.838632   8.138266   7.237590   5.834328
    18  H    6.596460   7.999088   8.643998   8.048945   6.702410
    19  H    6.807713   7.991022   7.916221   6.750661   5.428314
    20  H    7.572721   8.925349   9.210510   8.277907   6.876357
    21  C    3.721289   2.545035   3.281969   4.655909   5.414108
    22  C    2.587424   2.358297   3.727336   4.721844   4.855703
    23  C    4.486705   3.597652   4.580197   5.901980   6.481725
    24  C    4.659762   3.304453   3.503213   4.893595   5.926444
    25  C    5.863357   4.893301   5.726849   7.098658   7.788507
    26  C    5.993435   4.673994   4.902307   6.284239   7.334125
    27  H    4.621764   3.218722   2.971835   4.277456   5.466854
    28  C    6.487183   5.309515   5.834356   7.237612   8.138291
    29  H    6.596473   5.762524   6.702424   8.048955   8.644013
    30  H    6.807713   5.437076   5.428317   6.750658   7.916223
    31  H    7.572723   6.393323   6.876359   8.277903   9.210512
    32  N    2.346078   1.359653   2.519516   3.731962   4.235776
    33  N    3.959866   3.493191   4.749970   5.904675   6.186462
    34  N    2.346080   3.718168   4.235775   3.731964   2.519514
    35  N    3.959869   5.332026   6.186463   5.904680   4.749972
    36  C    5.012398   6.299383   7.314274   7.190673   6.111706
    37  H    5.705776   6.990368   7.980474   7.815762   6.705148
    38  H    5.705473   6.990036   7.980207   7.815583   6.705030
    39  H    4.784227   5.940280   7.094234   7.182680   6.264447
    40  C    5.012403   4.796273   6.111708   7.190674   7.314280
    41  H    5.705418   5.432903   6.704990   7.815529   7.980146
    42  H    5.705836   5.433157   6.705189   7.815814   7.980543
    43  H    4.784232   4.882274   6.264450   7.182683   7.094240
    44  Co   2.052091   2.908286   4.192982   4.645335   4.192987
                    6          7          8          9         10
     6  C    0.000000
     7  H    3.975795   0.000000
     8  H    3.379738   2.432071   0.000000
     9  H    2.170723   4.304365   2.432068   0.000000
    10  C    2.545037   6.483959   5.380831   3.171555   0.000000
    11  C    2.358294   5.906087   5.729444   4.263322   2.322579
    12  C    3.597620   7.564658   6.707270   4.576065   1.416234
    13  C    3.304460   6.937457   5.373932   2.951674   1.381884
    14  C    4.893325   8.868448   7.816276   5.530337   2.445135
    15  C    4.674009   8.343011   6.706992   4.275073   2.392663
    16  H    3.218725   6.405021   4.583634   2.169247   2.159935
    17  C    5.309501   9.191089   7.790562   5.380139   2.776416
    18  H    5.762516   9.727061   8.814279   6.574022   3.435670
    19  H    5.437086   8.873164   7.017390   4.632939   3.373272
    20  H    6.393329  10.257772   8.786450   6.360082   3.863038
    21  C    5.062578   3.171538   5.380820   6.483955   7.430364
    22  C    3.945330   4.263325   5.729448   5.906089   5.850882
    23  C    5.888216   4.576097   6.707306   7.564691   8.039927
    24  C    5.875625   2.951693   5.373952   6.937464   8.363658
    25  C    7.261339   5.530316   7.816257   8.868425   9.431301
    26  C    7.251484   4.275056   6.706977   8.342996   9.712450
    27  H    5.666479   2.169245   4.583635   6.405020   8.207311
    28  C    7.838643   5.380168   7.790592   9.191110  10.176789
    29  H    7.999092   6.574037   8.814294   9.727070  10.026414
    30  H    7.991014   4.632940   7.017395   8.873162  10.499456
    31  H    8.925341   6.360082   8.786453  10.257769  11.257597
    32  N    3.718158   2.879248   4.631635   5.318744   6.039367
    33  N    5.332013   5.048193   6.848132   7.251456   7.203817
    34  N    1.359657   5.318748   4.631632   2.879240   1.396765
    35  N    3.493195   7.251463   6.848133   5.048191   2.261639
    36  C    4.796270   8.346681   8.175305   6.466549   3.647263
    37  H    5.433115   9.013349   8.776796   6.995251   4.089950
    38  H    5.432945   9.013069   8.776648   6.995217   4.090095
    39  H    4.882269   8.071510   8.222461   6.784404   4.292761
    40  C    6.299380   6.466553   8.175309   8.346681   7.834515
    41  H    6.989964   6.995193   8.776599   9.012997   8.514042
    42  H    6.990429   6.995281   8.776850   9.013418   8.514602
    43  H    5.940278   6.784411   8.222465   8.071510   7.171845
    44  Co   2.908285   5.077450   5.731490   5.077451   4.145455
                   11         12         13         14         15
    11  C    0.000000
    12  C    2.280758   0.000000
    13  C    3.688058   2.431510   0.000000
    14  C    3.643536   1.391592   2.840207   0.000000
    15  C    4.642882   2.767964   1.407701   2.428637   0.000000
    16  H    4.259301   3.425594   1.082968   3.922970   2.162589
    17  C    4.624271   2.391482   2.433563   1.401880   1.386102
    18  H    4.175574   2.164907   3.925785   1.085582   3.413038
    19  H    5.671790   3.853097   2.153361   3.408460   1.085145
    20  H    5.648087   3.378231   3.412993   2.152904   2.142238
    21  C    5.850894   8.039910   8.363667   9.431334   9.712466
    22  C    3.881164   6.157773   7.010163   7.524256   8.236460
    23  C    6.157797   8.429533   9.116111   9.801286  10.401163
    24  C    7.010148   9.116071   9.157198  10.503359  10.544252
    25  C    7.524235   9.801241  10.503346  11.166492  11.792307
    26  C    8.236452  10.401125  10.544242  11.792320  11.924995
    27  H    7.133687   9.102737   8.856518  10.469415  10.261367
    28  C    8.453074  10.698954  11.138165  12.084020  12.480585
    29  H    7.986237  10.263658  11.169468  11.598129  12.411452
    30  H    9.154634  11.269405  11.245976  12.656465  12.642697
    31  H    9.502828  11.758311  12.224735  13.140255  13.565922
    32  N    4.482654   6.649013   7.004126   8.040605   8.338273
    33  N    5.135172   7.413186   8.389301   8.752550   9.594930
    34  N    1.435802   2.245912   2.551760   3.573425   3.757747
    35  N    1.391059   1.372920   3.567707   2.510994   4.121321
    36  C    2.481593   2.491031   4.882918   3.109092   5.207966
    37  H    3.208580   2.849076   5.213915   3.157811   5.370133
    38  H    3.208325   2.849391   5.214147   3.158391   5.370534
    39  H    2.541518   3.355610   5.621521   4.158170   6.121884
    40  C    5.592033   7.794049   9.115553   9.050846  10.211857
    41  H    6.278435   8.448504   9.793177   9.683663  10.878074
    42  H    6.279045   8.449097   9.793719   9.684262  10.878635
    43  H    4.868309   6.978979   8.501773   8.178929   9.510595
    44  Co   1.970263   4.245968   5.429406   5.589375   6.529056
                   16         17         18         19         20
    16  H    0.000000
    17  C    3.408656   0.000000
    18  H    5.008514   2.169424   0.000000
    19  H    2.473348   2.144494   4.304977   0.000000
    20  H    4.296925   1.086721   2.490264   2.463580   0.000000
    21  C    8.207312  10.176788  10.026424  10.499466  11.257612
    22  C    7.133689   8.453073   7.986237   9.154645   9.502837
    23  C    9.102769  10.698976  10.263680  11.269443  11.758345
    24  C    8.856523  11.138146  11.169451  11.245982  12.224734
    25  C   10.469393  12.083995  11.598110  12.656451  13.140242
    26  C   10.261354  12.480564  12.411441  12.642689  13.565917
    27  H    8.437635  10.975979  11.217758  10.880206  12.059497
    28  C   10.975996  12.900917  12.599793  13.275686  13.975391
    29  H   11.217765  12.599794  11.940890  13.319334  13.633989
    30  H   10.880204  13.275666  13.319321  13.304842  14.362373
    31  H   12.059494  13.975377  13.633980  14.362375  15.047799
    32  N    6.906698   8.781010   8.655643   9.149021   9.861313
    33  N    8.524689   9.750037   9.127217  10.528736  10.782887
    34  N    2.915374   4.143159   4.409113   4.678398   5.227829
    35  N    4.421391   3.720450   2.851091   5.204776   4.640341
    36  C    5.799954   4.493725   2.920555   6.284585   5.216725
    37  H    6.174277   4.519816   2.769823   6.413001   5.119638
    38  H    6.174430   4.520362   2.770556   6.413409   5.120262
    39  H    6.442330   5.520589   4.013670   7.206571   6.287779
    40  C    9.393298  10.181705   9.262371  11.206391  11.161495
    41  H   10.071871  10.828075   9.863327  11.873354  11.795842
    42  H   10.072386  10.828660   9.863938  11.873908  11.796431
    43  H    8.887396   9.369421   8.315890  10.537468  10.314183
    44  Co   5.772172   6.592868   6.017712   7.515972   7.617990
                   21         22         23         24         25
    21  C    0.000000
    22  C    2.322601   0.000000
    23  C    1.416285   2.280781   0.000000
    24  C    1.381833   3.688034   2.431495   0.000000
    25  C    2.445123   3.643515   1.391542   2.840158   0.000000
    26  C    2.392642   4.642879   2.767971   1.407681   2.428643
    27  H    2.159910   4.259303   3.425619   1.083002   3.922955
    28  C    2.776427   4.624269   2.391460   2.433572   1.401858
    29  H    3.435697   4.175575   2.164883   3.925771   1.085617
    30  H    3.373242   5.671778   3.853084   2.153363   3.408439
    31  H    3.863030   5.648079   3.378202   3.412976   2.152907
    32  N    1.396785   1.435793   2.245950   2.551756   3.573408
    33  N    2.261674   1.391047   1.372940   3.567685   2.510993
    34  N    6.039385   4.482667   6.649053   7.004128   8.040595
    35  N    7.203844   5.135187   7.413223   8.389298   8.752545
    36  C    7.834535   5.592035   7.794069   9.115536   9.050832
    37  H    8.514553   6.278980   8.449051   9.793634   9.684189
    38  H    8.514136   6.278510   8.448594   9.793232   9.683715
    39  H    7.171868   4.868312   6.978998   8.501754   8.178918
    40  C    3.647293   2.481593   2.491026   4.882891   3.109091
    41  H    4.090113   3.208288   2.849384   5.214113   3.158414
    42  H    4.089988   3.208611   2.849058   5.213892   3.157796
    43  H    4.292796   2.541521   3.355617   5.621498   4.158170
    44  Co   4.145471   1.970261   4.245988   5.429385   5.589353
                   26         27         28         29         30
    26  C    0.000000
    27  H    2.162573   0.000000
    28  C    1.386159   3.408693   0.000000
    29  H    3.413073   5.008533   2.169408   0.000000
    30  H    1.085126   2.473349   2.144514   4.304979   0.000000
    31  H    2.142260   4.296929   1.086703   2.490268   2.463573
    32  N    3.757751   2.915387   4.143180   4.409126   4.678400
    33  N    4.121338   4.421401   3.720454   2.851106   5.204775
    34  N    8.338272   6.906704   8.781030   8.655659   9.149022
    35  N    9.594937   8.524699   9.750052   9.127231  10.528739
    36  C   10.211855   9.393299  10.181703   9.262370  11.206381
    37  H   10.878569  10.072318  10.828597   9.863883  11.873835
    38  H   10.878141  10.071945  10.828138   9.863386  11.873414
    39  H    9.510597   8.887398   9.369418   8.315891  10.537459
    40  C    5.207979   5.799961   4.493710   2.920552   6.284576
    41  H    5.370554   6.174426   4.520358   2.770581   6.413405
    42  H    5.370143   6.174294   4.519784   2.769790   6.412986
    43  H    6.121899   6.442340   5.520580   4.013671   7.206566
    44  Co   6.529049   5.772170   6.592865   6.017711   7.515959
                   31         32         33         34         35
    31  H    0.000000
    32  N    5.227833   0.000000
    33  N    4.640347   2.232776   0.000000
    34  N    9.861318   4.646217   5.851235   0.000000
    35  N   10.782894   5.851235   6.295800   2.232780   0.000000
    36  C   11.161489   6.569008   6.540465   3.617906   1.428866
    37  H   11.796369   7.262402   7.187685   4.227270   2.099742
    38  H   11.795898   7.261993   7.187212   4.227163   2.099780
    39  H   10.314179   5.994770   5.673955   3.911222   2.055791
    40  C    5.216720   3.617904   1.428867   6.569019   6.540477
    41  H    5.120277   4.227135   2.099784   7.261928   7.187151
    42  H    5.119616   4.227293   2.099741   7.262484   7.187765
    43  H    6.287778   3.911220   2.055789   5.994781   5.673966
    44  Co   7.617979   2.893272   3.167318   2.893286   3.167335
                   36         37         38         39         40
    36  C    0.000000
    37  H    1.097804   0.000000
    38  H    1.097810   1.784728   0.000000
    39  H    1.093366   1.772733   1.772759   0.000000
    40  C    6.470362   7.054747   7.054225   5.471606   0.000000
    41  H    7.054164   7.714318   7.504446   6.039781   1.097809
    42  H    7.054804   7.505714   7.714418   6.040304   1.097802
    43  H    5.471603   6.040239   6.039846   4.442256   1.093370
    44  Co   3.690827   4.417227   4.416794   3.115916   3.690823
                   41         42         43         44
    41  H    0.000000
    42  H    1.784727   0.000000
    43  H    1.772763   1.772731   0.000000
    44  Co   4.416728   4.417281   3.115913   0.000000
 Symmetry turned off by external request.
 Stoichiometry    C22H17CoN4(3)
 Framework group  C1[X(C22H17CoN4)]
 Deg. of freedom   126
 Full point group                 C1      NOp   1
 Rotational constants (GHZ):           0.4632893           0.0991238           0.0817383
 General basis read from cards:  (5D, 7F)
 ======================================================================================================
                                       Pseudopotential Parameters
 ======================================================================================================
  Center     Atomic      Valence      Angular      Power
  Number     Number     Electrons     Momentum     of R      Exponent        Coefficient   SO-Coeffient
 ======================================================================================================
    1          6
                                   No pseudopotential on this center.
    2          6
                                   No pseudopotential on this center.
    3          6
                                   No pseudopotential on this center.
    4          6
                                   No pseudopotential on this center.
    5          6
                                   No pseudopotential on this center.
    6          6
                                   No pseudopotential on this center.
    7          1
                                   No pseudopotential on this center.
    8          1
                                   No pseudopotential on this center.
    9          1
                                   No pseudopotential on this center.
   10          6
                                   No pseudopotential on this center.
   11          6
                                   No pseudopotential on this center.
   12          6
                                   No pseudopotential on this center.
   13          6
                                   No pseudopotential on this center.
   14          6
                                   No pseudopotential on this center.
   15          6
                                   No pseudopotential on this center.
   16          1
                                   No pseudopotential on this center.
   17          6
                                   No pseudopotential on this center.
   18          1
                                   No pseudopotential on this center.
   19          1
                                   No pseudopotential on this center.
   20          1
                                   No pseudopotential on this center.
   21          6
                                   No pseudopotential on this center.
   22          6
                                   No pseudopotential on this center.
   23          6
                                   No pseudopotential on this center.
   24          6
                                   No pseudopotential on this center.
   25          6
                                   No pseudopotential on this center.
   26          6
                                   No pseudopotential on this center.
   27          1
                                   No pseudopotential on this center.
   28          6
                                   No pseudopotential on this center.
   29          1
                                   No pseudopotential on this center.
   30          1
                                   No pseudopotential on this center.
   31          1
                                   No pseudopotential on this center.
   32          7
                                   No pseudopotential on this center.
   33          7
                                   No pseudopotential on this center.
   34          7
                                   No pseudopotential on this center.
   35          7
                                   No pseudopotential on this center.
   36          6
                                   No pseudopotential on this center.
   37          1
                                   No pseudopotential on this center.
   38          1
                                   No pseudopotential on this center.
   39          1
                                   No pseudopotential on this center.
   40          6
                                   No pseudopotential on this center.
   41          1
                                   No pseudopotential on this center.
   42          1
                                   No pseudopotential on this center.
   43          1
                                   No pseudopotential on this center.
   44         27           17
                                      F and up 
                                                     2        1.0000000        0.00000000    0.00000000
                                      S - F
                                                     2       23.6600000      283.96056600    0.00000000
                                                     2       10.6100000       47.15684600    0.00000000
                                      P - F
                                                     2       25.0400000      182.21223600    0.00000000
                                                     2       10.4400000       35.23335200    0.00000000
                                      D - F
                                                     2       29.5400000      -26.47533300    0.00000000
                                                     2       10.1800000       -1.82578700    0.00000000
 ======================================================================================================
   441 basis functions,   871 primitive gaussians,   473 cartesian basis functions
    98 alpha electrons       96 beta electrons
       nuclear repulsion energy      2476.4859289183 Hartrees.
 NAtoms=   44 NActive=   44 NUniq=   44 SFac= 1.00D+00 NAtFMM=   60 NAOKFM=F Big=F
 Integral buffers will be    131072 words long.
 Raffenetti 2 integral format.
 Two-electron integral symmetry is turned off.
 Nuclear repulsion after empirical dispersion term =     2476.4270118945 Hartrees.
 One-electron integrals computed using PRISM.
   1 Symmetry operations used in ECPInt.
 ECPInt:  NShTT=   11781 NPrTT=   71406 LenC2=    9480 LenP2D=   31904.
 LDataN:  DoStor=T MaxTD1= 6 Len=  172
 NBasis=   441 RedAO= T EigKep=  3.23D-04  NBF=   441
 NBsUse=   441 1.00D-06 EigRej= -1.00D+00 NBFU=   441
 Initial guess from the checkpoint file:  "b.chk"
 B after Tr=    -0.000000    0.000782   -0.000001
         Rot=    1.000000   -0.000000    0.000000    0.000000 Ang=  -0.00 deg.
 Initial guess <Sx>= 0.0000 <Sy>= 0.0000 <Sz>= 1.0000 <S**2>= 2.3383 S= 1.1088
 Requested convergence on RMS density matrix=1.00D-08 within  64 cycles.
 Requested convergence on MAX density matrix=1.00D-06.
 Requested convergence on             energy=1.00D-06.
 No special actions if energy rises.
 SCF Done:  E(UPBE1PBE) =  -1212.11214580     A.U. after   13 cycles
            NFock= 13  Conv=0.90D-08     -V/T= 2.0553
 <Sx>= 0.0000 <Sy>= 0.0000 <Sz>= 1.0000 <S**2>= 2.3368 S= 1.1084
 <L.S>=  0.00000000000    
 Annihilation of the first spin contaminant:
 S**2 before annihilation     2.3368,   after     2.0087
 QCSCF skips out because SCF is already converged.

 **********************************************************************

            Population analysis using the SCF Density.

 **********************************************************************

 Alpha  occ. eigenvalues --  -14.45312 -14.45312 -14.45164 -14.45163 -10.28160
 Alpha  occ. eigenvalues --  -10.28160 -10.27575 -10.27575 -10.27247 -10.27247
 Alpha  occ. eigenvalues --  -10.27244 -10.27244 -10.26743 -10.26742 -10.23682
 Alpha  occ. eigenvalues --  -10.23682 -10.23593 -10.23593 -10.23070 -10.23070
 Alpha  occ. eigenvalues --  -10.22963 -10.22962 -10.22404 -10.22392 -10.22295
 Alpha  occ. eigenvalues --  -10.21060  -3.93415  -2.45319  -2.43703  -2.43215
 Alpha  occ. eigenvalues --   -1.05560  -1.05483  -0.96993  -0.96608  -0.88005
 Alpha  occ. eigenvalues --   -0.87615  -0.85587  -0.80402  -0.78818  -0.77586
 Alpha  occ. eigenvalues --   -0.77578  -0.75526  -0.74808  -0.73211  -0.72303
 Alpha  occ. eigenvalues --   -0.66703  -0.65292  -0.64360  -0.64077  -0.62608
 Alpha  occ. eigenvalues --   -0.61279  -0.58906  -0.57580  -0.56562  -0.53937
 Alpha  occ. eigenvalues --   -0.53032  -0.52303  -0.49620  -0.49539  -0.49068
 Alpha  occ. eigenvalues --   -0.48564  -0.48079  -0.47274  -0.46762  -0.45840
 Alpha  occ. eigenvalues --   -0.45673  -0.45326  -0.44813  -0.44754  -0.44048
 Alpha  occ. eigenvalues --   -0.42730  -0.41863  -0.41263  -0.38901  -0.38509
 Alpha  occ. eigenvalues --   -0.38427  -0.37431  -0.37298  -0.37159  -0.36924
 Alpha  occ. eigenvalues --   -0.36313  -0.35076  -0.34554  -0.33940  -0.31952
 Alpha  occ. eigenvalues --   -0.31304  -0.30303  -0.26890  -0.26603  -0.26567
 Alpha  occ. eigenvalues --   -0.26217  -0.26011  -0.24510  -0.24200  -0.22915
 Alpha  occ. eigenvalues --   -0.20920  -0.20662  -0.10103
 Alpha virt. eigenvalues --   -0.06284  -0.03041  -0.00264  -0.00039   0.00329
 Alpha virt. eigenvalues --    0.02210   0.02738   0.03464   0.03841   0.05641
 Alpha virt. eigenvalues --    0.06125   0.07574   0.07612   0.09623   0.10176
 Alpha virt. eigenvalues --    0.12541   0.12991   0.13717   0.13973   0.14911
 Alpha virt. eigenvalues --    0.15142   0.15372   0.15693   0.15953   0.16514
 Alpha virt. eigenvalues --    0.16875   0.17661   0.17793   0.17847   0.18101
 Alpha virt. eigenvalues --    0.19347   0.19769   0.19808   0.19830   0.21034
 Alpha virt. eigenvalues --    0.21638   0.22043   0.22573   0.23667   0.25389
 Alpha virt. eigenvalues --    0.25530   0.25547   0.26092   0.27538   0.27722
 Alpha virt. eigenvalues --    0.27751   0.28546   0.29799   0.30389   0.31204
 Alpha virt. eigenvalues --    0.32811   0.32975   0.33804   0.34676   0.36221
 Alpha virt. eigenvalues --    0.37368   0.37480   0.39144   0.39237   0.41383
 Alpha virt. eigenvalues --    0.42115   0.44061   0.44064   0.45811   0.46577
 Alpha virt. eigenvalues --    0.47082   0.49215   0.51185   0.51668   0.51983
 Alpha virt. eigenvalues --    0.53797   0.53987   0.56129   0.56138   0.56283
 Alpha virt. eigenvalues --    0.56820   0.56982   0.57960   0.58319   0.58621
 Alpha virt. eigenvalues --    0.58623   0.59465   0.60257   0.61404   0.61498
 Alpha virt. eigenvalues --    0.61595   0.63011   0.63032   0.63194   0.63455
 Alpha virt. eigenvalues --    0.63522   0.63568   0.64120   0.64234   0.65067
 Alpha virt. eigenvalues --    0.65096   0.65759   0.65976   0.66969   0.67329
 Alpha virt. eigenvalues --    0.67872   0.68387   0.68831   0.70943   0.71905
 Alpha virt. eigenvalues --    0.71971   0.73374   0.75054   0.75494   0.76063
 Alpha virt. eigenvalues --    0.76878   0.77781   0.79271   0.79610   0.81052
 Alpha virt. eigenvalues --    0.81547   0.82177   0.82640   0.83562   0.84262
 Alpha virt. eigenvalues --    0.84469   0.84909   0.85949   0.86497   0.86562
 Alpha virt. eigenvalues --    0.87393   0.87626   0.89414   0.89472   0.90423
 Alpha virt. eigenvalues --    0.90798   0.91290   0.91579   0.92812   0.92990
 Alpha virt. eigenvalues --    0.93347   0.94553   0.94969   0.95086   0.95754
 Alpha virt. eigenvalues --    0.97057   0.97517   0.97535   0.98282   0.98323
 Alpha virt. eigenvalues --    0.99999   1.00112   1.01278   1.02087   1.02523
 Alpha virt. eigenvalues --    1.02694   1.03829   1.05992   1.07013   1.07829
 Alpha virt. eigenvalues --    1.08230   1.09350   1.09457   1.10224   1.13535
 Alpha virt. eigenvalues --    1.14743   1.15448   1.16251   1.18186   1.18393
 Alpha virt. eigenvalues --    1.19134   1.19486   1.23469   1.23713   1.24210
 Alpha virt. eigenvalues --    1.24514   1.25640   1.26304   1.26386   1.28911
 Alpha virt. eigenvalues --    1.28921   1.29303   1.31097   1.33360   1.33716
 Alpha virt. eigenvalues --    1.36123   1.36338   1.36462   1.38441   1.39284
 Alpha virt. eigenvalues --    1.41030   1.41951   1.42380   1.42624   1.45144
 Alpha virt. eigenvalues --    1.45294   1.45499   1.45640   1.47135   1.48172
 Alpha virt. eigenvalues --    1.49424   1.50066   1.50080   1.50322   1.50371
 Alpha virt. eigenvalues --    1.50450   1.52014   1.52109   1.56340   1.56477
 Alpha virt. eigenvalues --    1.57472   1.61666   1.64127   1.64687   1.65257
 Alpha virt. eigenvalues --    1.70028   1.72291   1.72598   1.76298   1.77049
 Alpha virt. eigenvalues --    1.77912   1.79427   1.79517   1.82034   1.82509
 Alpha virt. eigenvalues --    1.84660   1.86140   1.86645   1.87154   1.87753
 Alpha virt. eigenvalues --    1.87884   1.89462   1.90841   1.91329   1.92878
 Alpha virt. eigenvalues --    1.94746   1.95032   1.96360   1.96665   1.97633
 Alpha virt. eigenvalues --    1.97930   1.98244   1.98466   1.98816   1.99360
 Alpha virt. eigenvalues --    2.00324   2.01152   2.02429   2.02976   2.05735
 Alpha virt. eigenvalues --    2.06004   2.06636   2.09143   2.09427   2.12030
 Alpha virt. eigenvalues --    2.12449   2.14278   2.14907   2.15205   2.15871
 Alpha virt. eigenvalues --    2.16428   2.16599   2.18951   2.19617   2.20427
 Alpha virt. eigenvalues --    2.21178   2.21246   2.21620   2.23459   2.23859
 Alpha virt. eigenvalues --    2.24353   2.26311   2.27172   2.27318   2.27380
 Alpha virt. eigenvalues --    2.27784   2.28017   2.28276   2.28718   2.32477
 Alpha virt. eigenvalues --    2.34038   2.38126   2.38639   2.40216   2.40228
 Alpha virt. eigenvalues --    2.42514   2.43696   2.44217   2.44700   2.46529
 Alpha virt. eigenvalues --    2.51109   2.51292   2.56930   2.58179   2.58634
 Alpha virt. eigenvalues --    2.58966   2.59834   2.60033   2.61964   2.63643
 Alpha virt. eigenvalues --    2.65094   2.66599   2.67209   2.68456   2.68948
 Alpha virt. eigenvalues --    2.69001   2.70530   2.72029   2.74480   2.74483
 Alpha virt. eigenvalues --    2.74497   2.76200   2.77614   2.78674   2.79801
 Alpha virt. eigenvalues --    2.82144   2.84248   2.87455   2.88244   2.91749
 Alpha virt. eigenvalues --    2.93133   2.96147   2.98089   2.98677   2.99782
 Alpha virt. eigenvalues --    3.05330   3.06703   3.14298   3.17425   3.18503
 Alpha virt. eigenvalues --    3.28793   3.38455   3.45223   3.46513   3.51364
 Alpha virt. eigenvalues --    3.51522   3.55872   5.55351   5.56707   5.57140
 Alpha virt. eigenvalues --    5.59607   5.61042   5.61062   5.62548  45.70384
 Alpha virt. eigenvalues --   45.85032  45.90769  63.01184
  Beta  occ. eigenvalues --  -14.45186 -14.45186 -14.45139 -14.45139 -10.27931
  Beta  occ. eigenvalues --  -10.27930 -10.27577 -10.27577 -10.27282 -10.27281
  Beta  occ. eigenvalues --  -10.27256 -10.27256 -10.26628 -10.26627 -10.23622
  Beta  occ. eigenvalues --  -10.23622 -10.23572 -10.23572 -10.23079 -10.23079
  Beta  occ. eigenvalues --  -10.22928 -10.22927 -10.22493 -10.22490 -10.22190
  Beta  occ. eigenvalues --  -10.21647  -3.85630  -2.36945  -2.36276  -2.33924
  Beta  occ. eigenvalues --   -1.05358  -1.05277  -0.96830  -0.96407  -0.88002
  Beta  occ. eigenvalues --   -0.87545  -0.85695  -0.80343  -0.78797  -0.77528
  Beta  occ. eigenvalues --   -0.77519  -0.75395  -0.74606  -0.73220  -0.72552
  Beta  occ. eigenvalues --   -0.66741  -0.65202  -0.64111  -0.64066  -0.62605
  Beta  occ. eigenvalues --   -0.61181  -0.58900  -0.57680  -0.56558  -0.53918
  Beta  occ. eigenvalues --   -0.53016  -0.52283  -0.49162  -0.49095  -0.49045
  Beta  occ. eigenvalues --   -0.48589  -0.48223  -0.47252  -0.46759  -0.45809
  Beta  occ. eigenvalues --   -0.45675  -0.45295  -0.44820  -0.44404  -0.43738
  Beta  occ. eigenvalues --   -0.42773  -0.41840  -0.41277  -0.38632  -0.38546
  Beta  occ. eigenvalues --   -0.38544  -0.37292  -0.37263  -0.36523  -0.36430
  Beta  occ. eigenvalues --   -0.35641  -0.35153  -0.34015  -0.33299  -0.31619
  Beta  occ. eigenvalues --   -0.29721  -0.27479  -0.26539  -0.25909  -0.24772
  Beta  occ. eigenvalues --   -0.23770  -0.23296  -0.21946  -0.20716  -0.19843
  Beta  occ. eigenvalues --   -0.19568
  Beta virt. eigenvalues --   -0.04436  -0.03893  -0.00774  -0.00362  -0.00110
  Beta virt. eigenvalues --    0.01369   0.01723   0.02397   0.03490   0.05409
  Beta virt. eigenvalues --    0.05709   0.06032   0.07891   0.08643   0.09289
  Beta virt. eigenvalues --    0.10197   0.10571   0.12629   0.13093   0.13837
  Beta virt. eigenvalues --    0.14277   0.15279   0.15295   0.15992   0.16056
  Beta virt. eigenvalues --    0.16553   0.16658   0.16917   0.17750   0.17965
  Beta virt. eigenvalues --    0.18431   0.18680   0.19490   0.19889   0.20021
  Beta virt. eigenvalues --    0.21435   0.21754   0.22225   0.22554   0.22690
  Beta virt. eigenvalues --    0.23722   0.25582   0.25651   0.26077   0.27034
  Beta virt. eigenvalues --    0.27565   0.27839   0.29038   0.29134   0.30167
  Beta virt. eigenvalues --    0.30703   0.31320   0.32936   0.32960   0.34156
  Beta virt. eigenvalues --    0.34727   0.36331   0.37630   0.37767   0.39279
  Beta virt. eigenvalues --    0.39322   0.41342   0.42534   0.44242   0.44541
  Beta virt. eigenvalues --    0.45856   0.46989   0.47585   0.49533   0.51270
  Beta virt. eigenvalues --    0.51802   0.51990   0.53894   0.54123   0.56165
  Beta virt. eigenvalues --    0.56173   0.56488   0.56880   0.57043   0.58139
  Beta virt. eigenvalues --    0.58444   0.58671   0.58885   0.59521   0.60315
  Beta virt. eigenvalues --    0.61552   0.61581   0.61718   0.62913   0.63063
  Beta virt. eigenvalues --    0.63362   0.63492   0.63608   0.63700   0.64154
  Beta virt. eigenvalues --    0.64249   0.65057   0.65147   0.65820   0.66135
  Beta virt. eigenvalues --    0.67416   0.67617   0.67905   0.68617   0.68622
  Beta virt. eigenvalues --    0.70950   0.71846   0.72157   0.73685   0.75293
  Beta virt. eigenvalues --    0.75499   0.76188   0.76975   0.78281   0.79409
  Beta virt. eigenvalues --    0.80182   0.81242   0.81756   0.82385   0.82685
  Beta virt. eigenvalues --    0.83997   0.84355   0.84528   0.85164   0.85952
  Beta virt. eigenvalues --    0.86770   0.86944   0.87409   0.87632   0.89461
  Beta virt. eigenvalues --    0.89670   0.90487   0.91076   0.91313   0.91711
  Beta virt. eigenvalues --    0.92834   0.92991   0.93394   0.95003   0.95247
  Beta virt. eigenvalues --    0.96191   0.96327   0.97064   0.97585   0.97880
  Beta virt. eigenvalues --    0.98279   0.98379   1.00101   1.00121   1.01326
  Beta virt. eigenvalues --    1.02133   1.02561   1.02739   1.03907   1.06091
  Beta virt. eigenvalues --    1.07039   1.08308   1.09299   1.09347   1.10577
  Beta virt. eigenvalues --    1.13605   1.14849   1.15492   1.16277   1.16536
  Beta virt. eigenvalues --    1.18210   1.18426   1.19168   1.19596   1.23499
  Beta virt. eigenvalues --    1.23851   1.24420   1.24577   1.26257   1.26339
  Beta virt. eigenvalues --    1.26531   1.29086   1.29108   1.29457   1.31073
  Beta virt. eigenvalues --    1.33733   1.34019   1.36311   1.36596   1.36734
  Beta virt. eigenvalues --    1.38587   1.39585   1.41286   1.42288   1.42705
  Beta virt. eigenvalues --    1.42906   1.45110   1.45394   1.45686   1.45779
  Beta virt. eigenvalues --    1.47328   1.48286   1.49601   1.50093   1.50325
  Beta virt. eigenvalues --    1.50450   1.50488   1.50637   1.52570   1.53253
  Beta virt. eigenvalues --    1.56384   1.56588   1.58303   1.61835   1.64227
  Beta virt. eigenvalues --    1.65410   1.65499   1.70078   1.72700   1.72741
  Beta virt. eigenvalues --    1.76506   1.77016   1.78243   1.79414   1.79627
  Beta virt. eigenvalues --    1.82128   1.82594   1.84721   1.86269   1.86781
  Beta virt. eigenvalues --    1.87156   1.87587   1.87837   1.89661   1.90870
  Beta virt. eigenvalues --    1.91402   1.92911   1.94767   1.95088   1.96388
  Beta virt. eigenvalues --    1.96731   1.97774   1.97992   1.98280   1.98457
  Beta virt. eigenvalues --    1.98938   1.99593   2.00356   2.01203   2.02471
  Beta virt. eigenvalues --    2.03038   2.05820   2.06188   2.06882   2.09331
  Beta virt. eigenvalues --    2.09369   2.12188   2.12423   2.14608   2.14968
  Beta virt. eigenvalues --    2.15226   2.15937   2.16561   2.16621   2.19061
  Beta virt. eigenvalues --    2.19860   2.20539   2.21256   2.21340   2.21748
  Beta virt. eigenvalues --    2.23721   2.24193   2.24521   2.26518   2.27354
  Beta virt. eigenvalues --    2.27393   2.27394   2.27914   2.28259   2.28489
  Beta virt. eigenvalues --    2.28881   2.32596   2.34424   2.38268   2.39061
  Beta virt. eigenvalues --    2.40344   2.40406   2.44057   2.44505   2.44947
  Beta virt. eigenvalues --    2.46567   2.48450   2.51196   2.51357   2.57129
  Beta virt. eigenvalues --    2.58441   2.58680   2.58836   2.60011   2.60332
  Beta virt. eigenvalues --    2.62056   2.63843   2.65313   2.66716   2.67641
  Beta virt. eigenvalues --    2.68965   2.69084   2.69090   2.71627   2.72742
  Beta virt. eigenvalues --    2.74591   2.74615   2.74844   2.77279   2.77932
  Beta virt. eigenvalues --    2.79035   2.79927   2.82430   2.84524   2.87798
  Beta virt. eigenvalues --    2.88413   2.92646   2.93130   2.96433   2.98021
  Beta virt. eigenvalues --    2.99094   2.99832   3.05500   3.06905   3.14346
  Beta virt. eigenvalues --    3.17600   3.18670   3.28570   3.38481   3.45901
  Beta virt. eigenvalues --    3.46519   3.51419   3.51476   3.58918   5.61464
  Beta virt. eigenvalues --    5.63521   5.63707   5.63807   5.65437   5.68076
  Beta virt. eigenvalues --    5.69312  45.81149  45.93468  45.98989  63.07821
          Condensed to atoms (all electrons):
               1          2          3          4          5          6
     1  C    5.198494   0.501263  -0.060984  -0.055650  -0.060985   0.501267
     2  C    0.501263   4.566076   0.526027  -0.015173  -0.039477  -0.016923
     3  C   -0.060984   0.526027   5.044247   0.527732  -0.030314  -0.039478
     4  C   -0.055650  -0.015173   0.527732   4.908341   0.527732  -0.015173
     5  C   -0.060985  -0.039477  -0.030314   0.527732   5.044247   0.526026
     6  C    0.501267  -0.016923  -0.039478  -0.015173   0.526026   4.566076
     7  H    0.006024  -0.038388   0.345816  -0.039354   0.003924   0.000750
     8  H    0.001413   0.002609  -0.035561   0.366494  -0.035561   0.002609
     9  H    0.006024   0.000750   0.003924  -0.039354   0.345817  -0.038388
    10  C    0.005733  -0.000027   0.000002   0.000109  -0.004665  -0.043288
    11  C    0.006182   0.001835  -0.000041   0.000035   0.002486  -0.063456
    12  C   -0.000649   0.000001  -0.000000   0.000000   0.000100   0.007059
    13  C    0.000152   0.000001  -0.000001   0.000050   0.001739  -0.004123
    14  C    0.000001  -0.000000   0.000000  -0.000000   0.000001  -0.000041
    15  C    0.000001  -0.000000   0.000000  -0.000001   0.000066   0.000056
    16  H   -0.000022   0.000000   0.000001   0.000083   0.000068   0.000823
    17  C    0.000000   0.000000   0.000000   0.000000  -0.000000  -0.000001
    18  H   -0.000000   0.000000   0.000000   0.000000  -0.000000   0.000002
    19  H   -0.000000   0.000000  -0.000000   0.000000   0.000001  -0.000002
    20  H    0.000000  -0.000000   0.000000  -0.000000  -0.000000  -0.000000
    21  C    0.005733  -0.043287  -0.004665   0.000109   0.000002  -0.000027
    22  C    0.006181  -0.063457   0.002486   0.000035  -0.000041   0.001835
    23  C   -0.000649   0.007060   0.000100   0.000000  -0.000000   0.000001
    24  C    0.000152  -0.004124   0.001738   0.000050  -0.000001   0.000001
    25  C    0.000001  -0.000041   0.000001  -0.000000   0.000000  -0.000000
    26  C    0.000001   0.000056   0.000066  -0.000001   0.000000  -0.000000
    27  H   -0.000022   0.000823   0.000068   0.000083   0.000001   0.000000
    28  C    0.000000  -0.000001  -0.000000   0.000000   0.000000   0.000000
    29  H   -0.000000   0.000002  -0.000000   0.000000   0.000000   0.000000
    30  H   -0.000000  -0.000002   0.000001   0.000000  -0.000000   0.000000
    31  H    0.000000  -0.000000  -0.000000  -0.000000   0.000000  -0.000000
    32  N   -0.040266   0.270028  -0.070072   0.004608   0.000046   0.005895
    33  N    0.001201   0.005899  -0.000165   0.000001   0.000000  -0.000030
    34  N   -0.040267   0.005895   0.000046   0.004608  -0.070072   0.270028
    35  N    0.001201  -0.000030   0.000000   0.000001  -0.000165   0.005899
    36  C   -0.000007   0.000000   0.000000  -0.000000   0.000002  -0.000045
    37  H   -0.000000  -0.000000   0.000000   0.000000  -0.000000   0.000003
    38  H   -0.000000  -0.000000   0.000000   0.000000  -0.000000   0.000003
    39  H   -0.000021   0.000001   0.000000  -0.000000   0.000000  -0.000009
    40  C   -0.000007  -0.000045   0.000002  -0.000000   0.000000   0.000000
    41  H   -0.000000   0.000003  -0.000000   0.000000   0.000000  -0.000000
    42  H   -0.000000   0.000003  -0.000000   0.000000   0.000000  -0.000000
    43  H   -0.000021  -0.000009   0.000000  -0.000000   0.000000   0.000001
    44  Co   0.257153  -0.059561   0.003973   0.003535   0.003973  -0.059561
               7          8          9         10         11         12
     1  C    0.006024   0.001413   0.006024   0.005733   0.006182  -0.000649
     2  C   -0.038388   0.002609   0.000750  -0.000027   0.001835   0.000001
     3  C    0.345816  -0.035561   0.003924   0.000002  -0.000041  -0.000000
     4  C   -0.039354   0.366494  -0.039354   0.000109   0.000035   0.000000
     5  C    0.003924  -0.035561   0.345817  -0.004665   0.002486   0.000100
     6  C    0.000750   0.002609  -0.038388  -0.043288  -0.063456   0.007059
     7  H    0.555735  -0.004269  -0.000102  -0.000000  -0.000000   0.000000
     8  H   -0.004269   0.543197  -0.004269  -0.000002   0.000001  -0.000000
     9  H   -0.000102  -0.004269   0.555733   0.000466  -0.000152  -0.000033
    10  C   -0.000000  -0.000002   0.000466   4.635518  -0.067108   0.515181
    11  C   -0.000000   0.000001  -0.000152  -0.067108   4.815659  -0.056189
    12  C    0.000000  -0.000000  -0.000033   0.515181  -0.056189   4.647945
    13  C   -0.000000   0.000002   0.000049   0.539113   0.004623  -0.055106
    14  C   -0.000000   0.000000   0.000000  -0.047985   0.005427   0.532483
    15  C   -0.000000   0.000000   0.000092  -0.006386  -0.000070  -0.037731
    16  H    0.000000  -0.000009   0.005845  -0.034182  -0.000150   0.003705
    17  C    0.000000  -0.000000   0.000002  -0.039196  -0.000075  -0.007711
    18  H    0.000000  -0.000000  -0.000000   0.003877  -0.000201  -0.038086
    19  H    0.000000   0.000000  -0.000008   0.001969   0.000003   0.000920
    20  H   -0.000000  -0.000000   0.000000   0.000896   0.000003   0.002287
    21  C    0.000465  -0.000002  -0.000000  -0.000000  -0.000005   0.000000
    22  C   -0.000152   0.000001  -0.000000  -0.000005  -0.010846  -0.000001
    23  C   -0.000033  -0.000000   0.000000   0.000000  -0.000001  -0.000000
    24  C    0.000049   0.000002  -0.000000   0.000000   0.000000   0.000000
    25  C    0.000000   0.000000  -0.000000  -0.000000   0.000000   0.000000
    26  C    0.000092   0.000000  -0.000000  -0.000000  -0.000000   0.000000
    27  H    0.005846  -0.000009   0.000000   0.000000   0.000000  -0.000000
    28  C    0.000002  -0.000000   0.000000   0.000000  -0.000000  -0.000000
    29  H   -0.000000  -0.000000   0.000000   0.000000   0.000000  -0.000000
    30  H   -0.000008   0.000000   0.000000   0.000000   0.000000   0.000000
    31  H    0.000000  -0.000000  -0.000000   0.000000   0.000000   0.000000
    32  N   -0.004005  -0.000097   0.000007   0.000000   0.000201   0.000000
    33  N    0.000002  -0.000000  -0.000000   0.000000   0.000012   0.000000
    34  N    0.000007  -0.000097  -0.004005   0.255481   0.339857  -0.038756
    35  N   -0.000000  -0.000000   0.000002  -0.045786   0.305666   0.271557
    36  C   -0.000000   0.000000  -0.000000   0.005619  -0.043598  -0.047511
    37  H    0.000000  -0.000000   0.000000  -0.000126   0.000748  -0.001169
    38  H    0.000000  -0.000000   0.000000  -0.000126   0.000743  -0.001166
    39  H    0.000000   0.000000   0.000000   0.000013  -0.000369   0.002656
    40  C   -0.000000   0.000000  -0.000000   0.000000   0.000011   0.000000
    41  H    0.000000  -0.000000   0.000000  -0.000000  -0.000000  -0.000000
    42  H    0.000000  -0.000000   0.000000  -0.000000  -0.000000  -0.000000
    43  H    0.000000   0.000000   0.000000  -0.000000  -0.000001  -0.000000
    44  Co  -0.000661   0.000119  -0.000661   0.007805   0.386994   0.004722
              13         14         15         16         17         18
     1  C    0.000152   0.000001   0.000001  -0.000022   0.000000  -0.000000
     2  C    0.000001  -0.000000  -0.000000   0.000000   0.000000   0.000000
     3  C   -0.000001   0.000000   0.000000   0.000001   0.000000   0.000000
     4  C    0.000050  -0.000000  -0.000001   0.000083   0.000000   0.000000
     5  C    0.001739   0.000001   0.000066   0.000068  -0.000000  -0.000000
     6  C   -0.004123  -0.000041   0.000056   0.000823  -0.000001   0.000002
     7  H   -0.000000  -0.000000  -0.000000   0.000000   0.000000   0.000000
     8  H    0.000002   0.000000   0.000000  -0.000009  -0.000000  -0.000000
     9  H    0.000049   0.000000   0.000092   0.005845   0.000002  -0.000000
    10  C    0.539113  -0.047985  -0.006386  -0.034182  -0.039196   0.003877
    11  C    0.004623   0.005427  -0.000070  -0.000150  -0.000075  -0.000201
    12  C   -0.055106   0.532483  -0.037731   0.003705  -0.007711  -0.038086
    13  C    5.027857  -0.044960   0.507748   0.356210  -0.035846   0.000292
    14  C   -0.044960   5.036879  -0.038702   0.000465   0.516229   0.362617
    15  C    0.507748  -0.038702   4.898950  -0.036219   0.559532   0.003982
    16  H    0.356210   0.000465  -0.036219   0.518621   0.003780   0.000014
    17  C   -0.035846   0.516229   0.559532   0.003780   4.884339  -0.036010
    18  H    0.000292   0.362617   0.003982   0.000014  -0.036010   0.536801
    19  H   -0.035857   0.004051   0.368960  -0.004108  -0.036173  -0.000153
    20  H    0.004046  -0.036760  -0.036467  -0.000153   0.368135  -0.004282
    21  C    0.000000  -0.000000  -0.000000   0.000000   0.000000   0.000000
    22  C    0.000000   0.000000  -0.000000   0.000000  -0.000000   0.000000
    23  C    0.000000   0.000000   0.000000  -0.000000  -0.000000  -0.000000
    24  C    0.000000  -0.000000  -0.000000   0.000000   0.000000   0.000000
    25  C   -0.000000  -0.000000   0.000000  -0.000000  -0.000000   0.000000
    26  C   -0.000000   0.000000  -0.000000  -0.000000   0.000000   0.000000
    27  H    0.000000  -0.000000  -0.000000   0.000000   0.000000  -0.000000
    28  C    0.000000  -0.000000   0.000000   0.000000   0.000000   0.000000
    29  H    0.000000   0.000000   0.000000  -0.000000   0.000000  -0.000000
    30  H   -0.000000  -0.000000   0.000000  -0.000000   0.000000   0.000000
    31  H   -0.000000   0.000000   0.000000  -0.000000   0.000000   0.000000
    32  N   -0.000000  -0.000000   0.000000   0.000000   0.000000  -0.000000
    33  N   -0.000000  -0.000000   0.000000   0.000000   0.000000  -0.000000
    34  N   -0.077236   0.008962   0.005080  -0.004979  -0.000210  -0.000088
    35  N    0.009368  -0.083648  -0.000147  -0.000098   0.005366  -0.007196
    36  C   -0.000121  -0.002917   0.000009   0.000003  -0.000110   0.004114
    37  H   -0.000008   0.002649  -0.000002  -0.000000  -0.000007   0.000496
    38  H   -0.000008   0.002646  -0.000002  -0.000000  -0.000007   0.000494
    39  H    0.000006   0.000014  -0.000000  -0.000000   0.000001  -0.000030
    40  C    0.000000   0.000000  -0.000000   0.000000   0.000000  -0.000000
    41  H    0.000000   0.000000  -0.000000   0.000000  -0.000000  -0.000000
    42  H    0.000000   0.000000  -0.000000   0.000000  -0.000000  -0.000000
    43  H   -0.000000   0.000000  -0.000000   0.000000  -0.000000   0.000000
    44  Co  -0.000478  -0.000430  -0.000023   0.000059   0.000009   0.000023
              19         20         21         22         23         24
     1  C   -0.000000   0.000000   0.005733   0.006181  -0.000649   0.000152
     2  C    0.000000  -0.000000  -0.043287  -0.063457   0.007060  -0.004124
     3  C   -0.000000   0.000000  -0.004665   0.002486   0.000100   0.001738
     4  C    0.000000  -0.000000   0.000109   0.000035   0.000000   0.000050
     5  C    0.000001  -0.000000   0.000002  -0.000041  -0.000000  -0.000001
     6  C   -0.000002  -0.000000  -0.000027   0.001835   0.000001   0.000001
     7  H    0.000000  -0.000000   0.000465  -0.000152  -0.000033   0.000049
     8  H    0.000000  -0.000000  -0.000002   0.000001  -0.000000   0.000002
     9  H   -0.000008   0.000000  -0.000000  -0.000000   0.000000  -0.000000
    10  C    0.001969   0.000896  -0.000000  -0.000005   0.000000   0.000000
    11  C    0.000003   0.000003  -0.000005  -0.010846  -0.000001   0.000000
    12  C    0.000920   0.002287   0.000000  -0.000001  -0.000000   0.000000
    13  C   -0.035857   0.004046   0.000000   0.000000   0.000000   0.000000
    14  C    0.004051  -0.036760  -0.000000   0.000000   0.000000  -0.000000
    15  C    0.368960  -0.036467  -0.000000  -0.000000   0.000000  -0.000000
    16  H   -0.004108  -0.000153   0.000000   0.000000  -0.000000   0.000000
    17  C   -0.036173   0.368135   0.000000  -0.000000  -0.000000   0.000000
    18  H   -0.000153  -0.004282   0.000000   0.000000  -0.000000   0.000000
    19  H    0.534351  -0.004611   0.000000   0.000000   0.000000  -0.000000
    20  H   -0.004611   0.537824   0.000000   0.000000   0.000000  -0.000000
    21  C    0.000000   0.000000   4.635496  -0.067106   0.515171   0.539120
    22  C    0.000000   0.000000  -0.067106   4.815644  -0.056189   0.004623
    23  C    0.000000   0.000000   0.515171  -0.056189   4.647937  -0.055109
    24  C   -0.000000  -0.000000   0.539120   0.004623  -0.055109   5.027876
    25  C   -0.000000   0.000000  -0.047985   0.005427   0.532491  -0.044968
    26  C    0.000000   0.000000  -0.006381  -0.000070  -0.037733   0.507744
    27  H   -0.000000  -0.000000  -0.034180  -0.000150   0.003705   0.356204
    28  C    0.000000   0.000000  -0.039197  -0.000075  -0.007706  -0.035842
    29  H    0.000000   0.000000   0.003877  -0.000201  -0.038088   0.000292
    30  H    0.000000   0.000000   0.001969   0.000003   0.000920  -0.035854
    31  H    0.000000   0.000000   0.000896   0.000003   0.002286   0.004046
    32  N    0.000000   0.000000   0.255478   0.339857  -0.038753  -0.077245
    33  N   -0.000000  -0.000000  -0.045782   0.305668   0.271554   0.009370
    34  N   -0.000086   0.000004   0.000000   0.000201   0.000000  -0.000000
    35  N    0.000004  -0.000096   0.000000   0.000012   0.000000  -0.000000
    36  C   -0.000000  -0.000002   0.000000   0.000011   0.000000   0.000000
    37  H   -0.000000  -0.000000  -0.000000  -0.000000  -0.000000   0.000000
    38  H   -0.000000  -0.000000  -0.000000  -0.000000  -0.000000   0.000000
    39  H   -0.000000  -0.000000  -0.000000  -0.000001  -0.000000  -0.000000
    40  C    0.000000  -0.000000   0.005618  -0.043599  -0.047512  -0.000121
    41  H   -0.000000   0.000000  -0.000126   0.000742  -0.001166  -0.000008
    42  H   -0.000000   0.000000  -0.000126   0.000749  -0.001170  -0.000008
    43  H    0.000000   0.000000   0.000013  -0.000369   0.002656   0.000006
    44  Co   0.000013  -0.000004   0.007805   0.386991   0.004722  -0.000478
              25         26         27         28         29         30
     1  C    0.000001   0.000001  -0.000022   0.000000  -0.000000  -0.000000
     2  C   -0.000041   0.000056   0.000823  -0.000001   0.000002  -0.000002
     3  C    0.000001   0.000066   0.000068  -0.000000  -0.000000   0.000001
     4  C   -0.000000  -0.000001   0.000083   0.000000   0.000000   0.000000
     5  C    0.000000   0.000000   0.000001   0.000000   0.000000  -0.000000
     6  C   -0.000000  -0.000000   0.000000   0.000000   0.000000   0.000000
     7  H    0.000000   0.000092   0.005846   0.000002  -0.000000  -0.000008
     8  H    0.000000   0.000000  -0.000009  -0.000000  -0.000000   0.000000
     9  H   -0.000000  -0.000000   0.000000   0.000000   0.000000   0.000000
    10  C   -0.000000  -0.000000   0.000000   0.000000   0.000000   0.000000
    11  C    0.000000  -0.000000   0.000000  -0.000000   0.000000   0.000000
    12  C    0.000000   0.000000  -0.000000  -0.000000  -0.000000   0.000000
    13  C   -0.000000  -0.000000   0.000000   0.000000   0.000000  -0.000000
    14  C   -0.000000   0.000000  -0.000000  -0.000000   0.000000  -0.000000
    15  C    0.000000  -0.000000  -0.000000   0.000000   0.000000   0.000000
    16  H   -0.000000  -0.000000   0.000000   0.000000  -0.000000  -0.000000
    17  C   -0.000000   0.000000   0.000000   0.000000   0.000000   0.000000
    18  H    0.000000   0.000000  -0.000000   0.000000  -0.000000   0.000000
    19  H   -0.000000   0.000000  -0.000000   0.000000   0.000000   0.000000
    20  H    0.000000   0.000000  -0.000000   0.000000   0.000000   0.000000
    21  C   -0.047985  -0.006381  -0.034180  -0.039197   0.003877   0.001969
    22  C    0.005427  -0.000070  -0.000150  -0.000075  -0.000201   0.000003
    23  C    0.532491  -0.037733   0.003705  -0.007706  -0.038088   0.000920
    24  C   -0.044968   0.507744   0.356204  -0.035842   0.000292  -0.035854
    25  C    5.036889  -0.038699   0.000466   0.516227   0.362613   0.004051
    26  C   -0.038699   4.898969  -0.036220   0.559517   0.003982   0.368963
    27  H    0.000466  -0.036220   0.518627   0.003780   0.000014  -0.004108
    28  C    0.516227   0.559517   0.003780   4.884356  -0.036012  -0.036173
    29  H    0.362613   0.003982   0.000014  -0.036012   0.536809  -0.000153
    30  H    0.004051   0.368963  -0.004108  -0.036173  -0.000153   0.534341
    31  H   -0.036757  -0.036467  -0.000153   0.368137  -0.004283  -0.004610
    32  N    0.008964   0.005080  -0.004979  -0.000210  -0.000088  -0.000086
    33  N   -0.083654  -0.000147  -0.000098   0.005366  -0.007197   0.000004
    34  N   -0.000000   0.000000   0.000000   0.000000  -0.000000   0.000000
    35  N   -0.000000   0.000000   0.000000   0.000000  -0.000000  -0.000000
    36  C    0.000000  -0.000000   0.000000   0.000000  -0.000000   0.000000
    37  H    0.000000  -0.000000   0.000000  -0.000000  -0.000000  -0.000000
    38  H    0.000000  -0.000000   0.000000  -0.000000  -0.000000  -0.000000
    39  H    0.000000  -0.000000   0.000000  -0.000000   0.000000   0.000000
    40  C   -0.002916   0.000009   0.000003  -0.000110   0.004114  -0.000000
    41  H    0.002646  -0.000002  -0.000000  -0.000007   0.000494  -0.000000
    42  H    0.002649  -0.000002  -0.000000  -0.000007   0.000496  -0.000000
    43  H    0.000014  -0.000000  -0.000000   0.000001  -0.000030  -0.000000
    44  Co  -0.000430  -0.000023   0.000059   0.000009   0.000023   0.000013
              31         32         33         34         35         36
     1  C    0.000000  -0.040266   0.001201  -0.040267   0.001201  -0.000007
     2  C   -0.000000   0.270028   0.005899   0.005895  -0.000030   0.000000
     3  C   -0.000000  -0.070072  -0.000165   0.000046   0.000000   0.000000
     4  C   -0.000000   0.004608   0.000001   0.004608   0.000001  -0.000000
     5  C    0.000000   0.000046   0.000000  -0.070072  -0.000165   0.000002
     6  C   -0.000000   0.005895  -0.000030   0.270028   0.005899  -0.000045
     7  H    0.000000  -0.004005   0.000002   0.000007  -0.000000  -0.000000
     8  H   -0.000000  -0.000097  -0.000000  -0.000097  -0.000000   0.000000
     9  H   -0.000000   0.000007  -0.000000  -0.004005   0.000002  -0.000000
    10  C    0.000000   0.000000   0.000000   0.255481  -0.045786   0.005619
    11  C    0.000000   0.000201   0.000012   0.339857   0.305666  -0.043598
    12  C    0.000000   0.000000   0.000000  -0.038756   0.271557  -0.047511
    13  C   -0.000000  -0.000000  -0.000000  -0.077236   0.009368  -0.000121
    14  C    0.000000  -0.000000  -0.000000   0.008962  -0.083648  -0.002917
    15  C    0.000000   0.000000   0.000000   0.005080  -0.000147   0.000009
    16  H   -0.000000   0.000000   0.000000  -0.004979  -0.000098   0.000003
    17  C    0.000000   0.000000   0.000000  -0.000210   0.005366  -0.000110
    18  H    0.000000  -0.000000  -0.000000  -0.000088  -0.007196   0.004114
    19  H    0.000000   0.000000  -0.000000  -0.000086   0.000004  -0.000000
    20  H    0.000000   0.000000  -0.000000   0.000004  -0.000096  -0.000002
    21  C    0.000896   0.255478  -0.045782   0.000000   0.000000   0.000000
    22  C    0.000003   0.339857   0.305668   0.000201   0.000012   0.000011
    23  C    0.002286  -0.038753   0.271554   0.000000   0.000000   0.000000
    24  C    0.004046  -0.077245   0.009370  -0.000000  -0.000000   0.000000
    25  C   -0.036757   0.008964  -0.083654  -0.000000  -0.000000   0.000000
    26  C   -0.036467   0.005080  -0.000147   0.000000   0.000000  -0.000000
    27  H   -0.000153  -0.004979  -0.000098   0.000000   0.000000   0.000000
    28  C    0.368137  -0.000210   0.005366   0.000000   0.000000   0.000000
    29  H   -0.004283  -0.000088  -0.007197  -0.000000  -0.000000  -0.000000
    30  H   -0.004610  -0.000086   0.000004   0.000000  -0.000000   0.000000
    31  H    0.537813   0.000004  -0.000096   0.000000  -0.000000  -0.000000
    32  N    0.000004   7.206291  -0.055706  -0.000053   0.000000   0.000000
    33  N   -0.000096  -0.055706   7.051239   0.000000  -0.000000  -0.000000
    34  N    0.000000  -0.000053   0.000000   7.206278  -0.055705   0.004485
    35  N   -0.000000   0.000000  -0.000000  -0.055705   7.051231   0.301147
    36  C   -0.000000   0.000000  -0.000000   0.004485   0.301147   5.051169
    37  H    0.000000   0.000000   0.000000  -0.000068  -0.041560   0.377225
    38  H    0.000000   0.000000   0.000000  -0.000068  -0.041564   0.377237
    39  H    0.000000  -0.000000   0.000000   0.000146  -0.032757   0.376820
    40  C   -0.000002   0.004485   0.301146   0.000000  -0.000000   0.000000
    41  H   -0.000000  -0.000068  -0.041564   0.000000   0.000000  -0.000000
    42  H   -0.000000  -0.000068  -0.041558   0.000000   0.000000  -0.000000
    43  H   -0.000000   0.000146  -0.032758  -0.000000   0.000000  -0.000001
    44  Co  -0.000004  -0.076570  -0.053340  -0.076569  -0.053340  -0.003877
              37         38         39         40         41         42
     1  C   -0.000000  -0.000000  -0.000021  -0.000007  -0.000000  -0.000000
     2  C   -0.000000  -0.000000   0.000001  -0.000045   0.000003   0.000003
     3  C    0.000000   0.000000   0.000000   0.000002  -0.000000  -0.000000
     4  C    0.000000   0.000000  -0.000000  -0.000000   0.000000   0.000000
     5  C   -0.000000  -0.000000   0.000000   0.000000   0.000000   0.000000
     6  C    0.000003   0.000003  -0.000009   0.000000  -0.000000  -0.000000
     7  H    0.000000   0.000000   0.000000  -0.000000   0.000000   0.000000
     8  H   -0.000000  -0.000000   0.000000   0.000000  -0.000000  -0.000000
     9  H    0.000000   0.000000   0.000000  -0.000000   0.000000   0.000000
    10  C   -0.000126  -0.000126   0.000013   0.000000  -0.000000  -0.000000
    11  C    0.000748   0.000743  -0.000369   0.000011  -0.000000  -0.000000
    12  C   -0.001169  -0.001166   0.002656   0.000000  -0.000000  -0.000000
    13  C   -0.000008  -0.000008   0.000006   0.000000   0.000000   0.000000
    14  C    0.002649   0.002646   0.000014   0.000000   0.000000   0.000000
    15  C   -0.000002  -0.000002  -0.000000  -0.000000  -0.000000  -0.000000
    16  H   -0.000000  -0.000000  -0.000000   0.000000   0.000000   0.000000
    17  C   -0.000007  -0.000007   0.000001   0.000000  -0.000000  -0.000000
    18  H    0.000496   0.000494  -0.000030  -0.000000  -0.000000  -0.000000
    19  H   -0.000000  -0.000000  -0.000000   0.000000  -0.000000  -0.000000
    20  H   -0.000000  -0.000000  -0.000000  -0.000000   0.000000   0.000000
    21  C   -0.000000  -0.000000  -0.000000   0.005618  -0.000126  -0.000126
    22  C   -0.000000  -0.000000  -0.000001  -0.043599   0.000742   0.000749
    23  C   -0.000000  -0.000000  -0.000000  -0.047512  -0.001166  -0.001170
    24  C    0.000000   0.000000  -0.000000  -0.000121  -0.000008  -0.000008
    25  C    0.000000   0.000000   0.000000  -0.002916   0.002646   0.002649
    26  C   -0.000000  -0.000000  -0.000000   0.000009  -0.000002  -0.000002
    27  H    0.000000   0.000000   0.000000   0.000003  -0.000000  -0.000000
    28  C   -0.000000  -0.000000  -0.000000  -0.000110  -0.000007  -0.000007
    29  H   -0.000000  -0.000000   0.000000   0.004114   0.000494   0.000496
    30  H   -0.000000  -0.000000   0.000000  -0.000000  -0.000000  -0.000000
    31  H    0.000000   0.000000   0.000000  -0.000002  -0.000000  -0.000000
    32  N    0.000000   0.000000  -0.000000   0.004485  -0.000068  -0.000068
    33  N    0.000000   0.000000   0.000000   0.301146  -0.041564  -0.041558
    34  N   -0.000068  -0.000068   0.000146   0.000000   0.000000   0.000000
    35  N   -0.041560  -0.041564  -0.032757  -0.000000   0.000000   0.000000
    36  C    0.377225   0.377237   0.376820   0.000000  -0.000000  -0.000000
    37  H    0.525331  -0.040662  -0.025589  -0.000000  -0.000000   0.000000
    38  H   -0.040662   0.525340  -0.025604  -0.000000   0.000000  -0.000000
    39  H   -0.025589  -0.025604   0.479502  -0.000001   0.000000   0.000000
    40  C   -0.000000  -0.000000  -0.000001   5.051172   0.377238   0.377225
    41  H   -0.000000   0.000000   0.000000   0.377238   0.525337  -0.040662
    42  H    0.000000  -0.000000   0.000000   0.377225  -0.040662   0.525329
    43  H    0.000000   0.000000  -0.000018   0.376820  -0.025604  -0.025588
    44  Co   0.001030   0.001029   0.007904  -0.003877   0.001030   0.001029
              43         44
     1  C   -0.000021   0.257153
     2  C   -0.000009  -0.059561
     3  C    0.000000   0.003973
     4  C   -0.000000   0.003535
     5  C    0.000000   0.003973
     6  C    0.000001  -0.059561
     7  H    0.000000  -0.000661
     8  H    0.000000   0.000119
     9  H    0.000000  -0.000661
    10  C   -0.000000   0.007805
    11  C   -0.000001   0.386994
    12  C   -0.000000   0.004722
    13  C   -0.000000  -0.000478
    14  C    0.000000  -0.000430
    15  C   -0.000000  -0.000023
    16  H    0.000000   0.000059
    17  C   -0.000000   0.000009
    18  H    0.000000   0.000023
    19  H    0.000000   0.000013
    20  H    0.000000  -0.000004
    21  C    0.000013   0.007805
    22  C   -0.000369   0.386991
    23  C    0.002656   0.004722
    24  C    0.000006  -0.000478
    25  C    0.000014  -0.000430
    26  C   -0.000000  -0.000023
    27  H   -0.000000   0.000059
    28  C    0.000001   0.000009
    29  H   -0.000030   0.000023
    30  H   -0.000000   0.000013
    31  H   -0.000000  -0.000004
    32  N    0.000146  -0.076570
    33  N   -0.032758  -0.053340
    34  N   -0.000000  -0.076569
    35  N    0.000000  -0.053340
    36  C   -0.000001  -0.003877
    37  H    0.000000   0.001030
    38  H    0.000000   0.001029
    39  H   -0.000018   0.007904
    40  C    0.376820  -0.003877
    41  H   -0.025604   0.001030
    42  H   -0.025588   0.001029
    43  H    0.479503   0.007904
    44  Co   0.007904  16.341947
          Atomic-Atomic Spin Densities.
               1          2          3          4          5          6
     1  C   -0.382887  -0.006825   0.005731   0.008338   0.005731  -0.006825
     2  C   -0.006825   0.089642   0.003190  -0.002605   0.001354   0.000886
     3  C    0.005731   0.003190  -0.077004  -0.005209   0.000068   0.001354
     4  C    0.008338  -0.002605  -0.005209   0.090231  -0.005209  -0.002605
     5  C    0.005731   0.001354   0.000068  -0.005209  -0.077005   0.003190
     6  C   -0.006825   0.000886   0.001354  -0.002605   0.003190   0.089641
     7  H   -0.000993   0.000481   0.004605   0.001904  -0.000038  -0.000098
     8  H   -0.000160   0.000007  -0.000034   0.000464  -0.000034   0.000007
     9  H   -0.000993  -0.000098  -0.000038   0.001904   0.004605   0.000481
    10  C   -0.000288  -0.000018   0.000001   0.000018   0.000415   0.000195
    11  C    0.006721  -0.000784   0.000006   0.000025  -0.000174  -0.006382
    12  C    0.000073   0.000000   0.000000  -0.000000  -0.000007   0.000025
    13  C    0.000015   0.000000  -0.000000   0.000002  -0.000275  -0.000377
    14  C    0.000000   0.000000  -0.000000  -0.000000  -0.000001  -0.000019
    15  C   -0.000000   0.000000   0.000000  -0.000000   0.000002   0.000006
    16  H   -0.000002  -0.000000  -0.000000   0.000003   0.000085   0.000062
    17  C   -0.000000  -0.000000   0.000000  -0.000000   0.000000   0.000002
    18  H    0.000000  -0.000000   0.000000   0.000000   0.000000   0.000000
    19  H    0.000000   0.000000  -0.000000  -0.000000  -0.000000   0.000000
    20  H   -0.000000   0.000000  -0.000000  -0.000000  -0.000000  -0.000000
    21  C   -0.000288   0.000195   0.000415   0.000018   0.000001  -0.000018
    22  C    0.006721  -0.006382  -0.000174   0.000025   0.000006  -0.000784
    23  C    0.000073   0.000025  -0.000007  -0.000000   0.000000   0.000000
    24  C    0.000015  -0.000377  -0.000275   0.000002  -0.000000   0.000000
    25  C    0.000000  -0.000019  -0.000001  -0.000000  -0.000000   0.000000
    26  C   -0.000000   0.000006   0.000002  -0.000000   0.000000   0.000000
    27  H   -0.000002   0.000062   0.000085   0.000003  -0.000000  -0.000000
    28  C   -0.000000   0.000002   0.000000  -0.000000   0.000000  -0.000000
    29  H    0.000000   0.000000   0.000000   0.000000   0.000000  -0.000000
    30  H    0.000000   0.000000  -0.000000  -0.000000  -0.000000   0.000000
    31  H   -0.000000  -0.000000  -0.000000  -0.000000  -0.000000   0.000000
    32  N    0.002341   0.012198   0.004725   0.000110   0.000044  -0.000148
    33  N   -0.000635   0.000354  -0.000015  -0.000000  -0.000000   0.000003
    34  N    0.002340  -0.000148   0.000044   0.000110   0.004725   0.012199
    35  N   -0.000635   0.000003  -0.000000  -0.000000  -0.000015   0.000354
    36  C   -0.000019   0.000000  -0.000000  -0.000000  -0.000000  -0.000004
    37  H    0.000000  -0.000000   0.000000   0.000000   0.000000  -0.000001
    38  H    0.000000  -0.000000   0.000000   0.000000   0.000000  -0.000001
    39  H    0.000014  -0.000000   0.000000   0.000000   0.000000   0.000000
    40  C   -0.000019  -0.000004  -0.000000  -0.000000  -0.000000   0.000000
    41  H    0.000000  -0.000001   0.000000   0.000000   0.000000  -0.000000
    42  H    0.000000  -0.000001   0.000000   0.000000   0.000000  -0.000000
    43  H    0.000014   0.000000   0.000000   0.000000   0.000000  -0.000000
    44  Co   0.017339  -0.010370  -0.001905   0.000981  -0.001905  -0.010369
               7          8          9         10         11         12
     1  C   -0.000993  -0.000160  -0.000993  -0.000288   0.006721   0.000073
     2  C    0.000481   0.000007  -0.000098  -0.000018  -0.000784   0.000000
     3  C    0.004605  -0.000034  -0.000038   0.000001   0.000006   0.000000
     4  C    0.001904   0.000464   0.001904   0.000018   0.000025  -0.000000
     5  C   -0.000038  -0.000034   0.004605   0.000415  -0.000174  -0.000007
     6  C   -0.000098   0.000007   0.000481   0.000195  -0.006382   0.000025
     7  H   -0.009135  -0.000169  -0.000026  -0.000000   0.000000  -0.000000
     8  H   -0.000169  -0.004368  -0.000169  -0.000000   0.000000   0.000000
     9  H   -0.000026  -0.000169  -0.009134  -0.000136   0.000016   0.000001
    10  C   -0.000000  -0.000000  -0.000136  -0.004116   0.001716  -0.002151
    11  C    0.000000   0.000000   0.000016   0.001716   0.208808  -0.002278
    12  C   -0.000000   0.000000   0.000001  -0.002151  -0.002278  -0.028571
    13  C    0.000000   0.000000   0.000173   0.004446   0.000258   0.000594
    14  C    0.000000   0.000000   0.000001   0.000899   0.000546  -0.000504
    15  C    0.000000   0.000000   0.000005  -0.000769  -0.000026   0.000235
    16  H   -0.000000  -0.000000  -0.000178  -0.000183   0.000000  -0.000006
    17  C   -0.000000  -0.000000  -0.000000   0.000138  -0.000012  -0.000217
    18  H   -0.000000  -0.000000  -0.000000  -0.000010  -0.000003  -0.000075
    19  H   -0.000000  -0.000000  -0.000000   0.000001  -0.000000  -0.000008
    20  H    0.000000   0.000000   0.000000  -0.000004   0.000000   0.000014
    21  C   -0.000136  -0.000000  -0.000000  -0.000000   0.000001  -0.000000
    22  C    0.000016   0.000000   0.000000   0.000001   0.001392   0.000000
    23  C    0.000001   0.000000  -0.000000  -0.000000   0.000000   0.000000
    24  C    0.000173   0.000000   0.000000   0.000000   0.000000   0.000000
    25  C    0.000001   0.000000   0.000000   0.000000   0.000000   0.000000
    26  C    0.000005   0.000000   0.000000  -0.000000  -0.000000   0.000000
    27  H   -0.000178  -0.000000  -0.000000  -0.000000  -0.000000  -0.000000
    28  C   -0.000000  -0.000000  -0.000000  -0.000000  -0.000000  -0.000000
    29  H   -0.000000  -0.000000  -0.000000   0.000000   0.000000  -0.000000
    30  H   -0.000000  -0.000000  -0.000000  -0.000000  -0.000000   0.000000
    31  H    0.000000   0.000000   0.000000   0.000000  -0.000000  -0.000000
    32  N   -0.000697  -0.000002  -0.000002  -0.000000  -0.000048  -0.000000
    33  N    0.000003   0.000000   0.000000   0.000000  -0.000002   0.000000
    34  N   -0.000002  -0.000002  -0.000697  -0.001216  -0.032502   0.001587
    35  N    0.000000   0.000000   0.000003  -0.000734  -0.041289   0.008852
    36  C    0.000000   0.000000   0.000000  -0.000029   0.001063   0.000366
    37  H   -0.000000  -0.000000  -0.000000   0.000003   0.000425  -0.000166
    38  H   -0.000000  -0.000000  -0.000000   0.000003   0.000425  -0.000166
    39  H   -0.000000  -0.000000  -0.000000   0.000000  -0.000774  -0.000063
    40  C    0.000000   0.000000   0.000000   0.000000   0.000000  -0.000000
    41  H   -0.000000  -0.000000  -0.000000   0.000000   0.000000  -0.000000
    42  H   -0.000000  -0.000000  -0.000000   0.000000   0.000000  -0.000000
    43  H   -0.000000  -0.000000  -0.000000  -0.000000  -0.000000   0.000000
    44  Co   0.000405   0.000041   0.000405   0.001406   0.058862   0.000069
              13         14         15         16         17         18
     1  C    0.000015   0.000000  -0.000000  -0.000002  -0.000000   0.000000
     2  C    0.000000   0.000000   0.000000  -0.000000  -0.000000  -0.000000
     3  C   -0.000000  -0.000000   0.000000  -0.000000   0.000000   0.000000
     4  C    0.000002  -0.000000  -0.000000   0.000003  -0.000000   0.000000
     5  C   -0.000275  -0.000001   0.000002   0.000085   0.000000   0.000000
     6  C   -0.000377  -0.000019   0.000006   0.000062   0.000002   0.000000
     7  H    0.000000   0.000000   0.000000  -0.000000  -0.000000  -0.000000
     8  H    0.000000   0.000000   0.000000  -0.000000  -0.000000  -0.000000
     9  H    0.000173   0.000001   0.000005  -0.000178  -0.000000  -0.000000
    10  C    0.004446   0.000899  -0.000769  -0.000183   0.000138  -0.000010
    11  C    0.000258   0.000546  -0.000026   0.000000  -0.000012  -0.000003
    12  C    0.000594  -0.000504   0.000235  -0.000006  -0.000217  -0.000075
    13  C    0.018351   0.000972  -0.009389   0.000253  -0.001102  -0.000005
    14  C    0.000972   0.052235  -0.002163  -0.000001  -0.006254   0.000080
    15  C   -0.009389  -0.002163   0.031358   0.000004   0.005690  -0.000003
[...]
              Bcc     0.0065     3.452     1.232     1.151  0.7625  0.6139 -0.2042
 
              Baa    -0.0039    -2.107    -0.752    -0.703  0.0238 -0.3417  0.9395
    42 H(1)   Bbb    -0.0025    -1.344    -0.480    -0.448 -0.6465  0.7116  0.2752
              Bcc     0.0065     3.451     1.231     1.151  0.7625  0.6139  0.2040
 
              Baa    -0.0077    -4.118    -1.469    -1.373  0.0005 -0.0005  1.0000
    43 H(1)   Bbb    -0.0066    -3.505    -1.251    -1.169  0.7460 -0.6660 -0.0008
              Bcc     0.0143     7.622     2.720     2.543  0.6660  0.7460  0.0000
 
              Baa    -0.7543   -95.255   -33.989   -31.774  1.0000 -0.0000  0.0000
    44 Co(59) Bbb    -0.1623   -20.492    -7.312    -6.836  0.0000  1.0000 -0.0001
              Bcc     0.9166   115.747    41.302    38.609 -0.0000  0.0001  1.0000
 

 ---------------------------------------------------------------------------------

   1 Symmetry operations used in ECPInt.
 ECPInt:  NShTT=   11781 NPrTT=   71406 LenC2=    9480 LenP2D=   31904.
 LDataN:  DoStor=T MaxTD1= 7 Len=  274
 Calling FoFJK, ICntrl=      2127 FMM=F ISym2X=0 I1Cent= 0 IOpClX= 1 NMat=1 NMatS=1 NMatT=0.
 -------------------------------------------------------------------
 Center     Atomic                   Forces (Hartrees/Bohr)
 Number     Number              X              Y              Z
 -------------------------------------------------------------------
      1        6          -0.000005284   -0.070619675    0.000019377
      2        6           0.054221517    0.031590827   -0.000002376
      3        6          -0.005064711    0.003085900   -0.000002464
      4        6           0.000004857    0.002872436    0.000000470
      5        6           0.005054984    0.003082341   -0.000002426
      6        6          -0.054209477    0.031596708   -0.000002888
      7        1          -0.000822084    0.003176527    0.000000546
      8        1          -0.000000538    0.000375599   -0.000000963
      9        1           0.000825272    0.003178485    0.000000285
     10        6          -0.009471562   -0.005808753    0.000001820
     11        6           0.001276055    0.004299997   -0.000016762
     12        6           0.009893871    0.005211115    0.000001706
     13        6           0.009202090    0.003928244   -0.000000384
     14        6           0.000443398    0.003212684    0.000000478
     15        6          -0.010312123    0.005088237    0.000000641
     16        1          -0.000783539    0.000157855   -0.000000539
     17        6           0.000060122   -0.008223751   -0.000000398
     18        1          -0.000447074   -0.000177242   -0.000000083
     19        1           0.000070875    0.000364805   -0.000000501
     20        1          -0.000542973   -0.000394556   -0.000000038
     21        6           0.009493900   -0.005887407    0.000001457
     22        6          -0.001272695    0.004301666   -0.000019076
     23        6          -0.009824728    0.005253917    0.000001725
     24        6          -0.009201985    0.004000127    0.000000071
     25        6          -0.000485716    0.003157584    0.000000217
     26        6           0.010285444    0.005018779   -0.000000042
     27        1           0.000777132    0.000136375   -0.000000410
     28        6          -0.000035804   -0.008152507   -0.000000410
     29        1           0.000456058   -0.000157084   -0.000000601
     30        1          -0.000076038    0.000376615   -0.000000367
     31        1           0.000532358   -0.000399981   -0.000000130
     32        7          -0.017166877   -0.047162261    0.000001899
     33        7           0.021141067    0.016548963    0.000011325
     34        7           0.017146525   -0.047173232    0.000000495
     35        7          -0.021167109    0.016546727    0.000008878
     36        6          -0.000307826   -0.007986782   -0.000000759
     37        1           0.000509750    0.001890297    0.000525364
     38        1           0.000507857    0.001891296   -0.000526613
     39        1           0.000516683    0.001272495    0.000000416
     40        6           0.000314874   -0.007987977   -0.000000803
     41        1          -0.000508173    0.001891203   -0.000525967
     42        1          -0.000510559    0.001890481    0.000524473
     43        1          -0.000518974    0.001272476    0.000000677
     44       27           0.000001159    0.043460448    0.000002680
 -------------------------------------------------------------------
 Cartesian Forces:  Max     0.070619675 RMS     0.013096217

 GradGradGradGradGradGradGradGradGradGradGradGradGradGradGradGradGradGrad
 Berny optimization.
 Search for a local minimum.
 Step number   1 out of a maximum of    2
 All quantities printed in internal units (Hartrees-Bohrs-Radians)
 Second derivative matrix not updated -- first step.
 ITU=  0
     Eigenvalues ---    0.00054   0.00055   0.00195   0.00240   0.00242
     Eigenvalues ---    0.00378   0.00438   0.00608   0.00650   0.00662
     Eigenvalues ---    0.00664   0.00815   0.00841   0.01316   0.01549
     Eigenvalues ---    0.01789   0.02017   0.02051   0.02542   0.02550
     Eigenvalues ---    0.03036   0.03101   0.04099   0.04199   0.04390
     Eigenvalues ---    0.04475   0.04668   0.05372   0.05521   0.06096
     Eigenvalues ---    0.06144   0.06889   0.06923   0.07034   0.07055
     Eigenvalues ---    0.07057   0.07242   0.07692   0.07760   0.09579
     Eigenvalues ---    0.09822   0.10086   0.10332   0.11489   0.11876
     Eigenvalues ---    0.11937   0.12080   0.12174   0.12801   0.13318
     Eigenvalues ---    0.13324   0.13401   0.13619   0.14672   0.15360
     Eigenvalues ---    0.15395   0.15856   0.19277   0.19752   0.19972
     Eigenvalues ---    0.20953   0.21870   0.23995   0.24432   0.28467
     Eigenvalues ---    0.29415   0.29453   0.30270   0.30574   0.31513
     Eigenvalues ---    0.31700   0.34639   0.35594   0.36250   0.37137
     Eigenvalues ---    0.37473   0.41037   0.41497   0.44234   0.46592
     Eigenvalues ---    0.48104   0.48253   0.49284   0.50866   0.51011
     Eigenvalues ---    0.53489   0.53666   0.53722   0.60587   0.62632
     Eigenvalues ---    0.68412   0.71223   0.72520   0.73587   0.86412
     Eigenvalues ---    0.90011   0.90635   0.90920   0.92620   0.94082
     Eigenvalues ---    0.94969   0.96665   0.99710   1.03836   1.12018
     Eigenvalues ---    1.15429   1.15593   1.18033   1.20404   1.23678
     Eigenvalues ---    1.30128   1.37657   1.37679   1.45415   1.46690
     Eigenvalues ---    1.49215   1.50405   1.52682   1.60070   1.63592
     Eigenvalues ---    1.64919   1.66012   1.77067   1.78227   1.83490
     Eigenvalues ---    1.86996
 Quadratic step=7.310D-01 exceeds max=3.000D-01 adjusted using Lamda=-2.991D-02.
 Angle between NR and scaled steps=  32.90 degrees.
 Angle between quadratic step and forces=  51.89 degrees.
 Linear search not attempted -- first point.
 B after Tr=     0.000001   -0.000907   -0.000000
         Rot=    1.000000   -0.000000   -0.000000   -0.000000 Ang=  -0.00 deg.
 Variable       Old X    -DE/DX   Delta X   Delta X   Delta X     New X
                                 (Linear)    (Quad)   (Total)
    X1        0.00001  -0.00001   0.00000  -0.00000  -0.00000   0.00001
    Y1        1.50723  -0.07062   0.00000  -0.13836  -0.13927   1.36797
    Z1        0.00019   0.00002   0.00000   0.00009   0.00009   0.00028
    X2       -2.43548   0.05422   0.00000   0.07943   0.07943  -2.35605
    Y2        2.55610   0.03159   0.00000  -0.02088  -0.02179   2.53431
    Z2        0.00008  -0.00000   0.00000   0.00002   0.00003   0.00010
    X3       -2.35774  -0.00506   0.00000   0.02193   0.02193  -2.33581
    Y3        5.19402   0.00309   0.00000  -0.00356  -0.00447   5.18955
    Z3       -0.00001  -0.00000   0.00000  -0.00000   0.00000  -0.00001
    X4        0.00000   0.00000   0.00000   0.00000   0.00000   0.00000
    Y4        6.40775   0.00287   0.00000   0.02285   0.02195   6.42970
    Z4       -0.00001   0.00000   0.00000  -0.00001  -0.00000  -0.00001
    X5        2.35775   0.00505   0.00000  -0.02193  -0.02193   2.33582
    Y5        5.19402   0.00308   0.00000  -0.00356  -0.00447   5.18956
    Z5        0.00006  -0.00000   0.00000  -0.00001  -0.00000   0.00006
    X6        2.43548  -0.05421   0.00000  -0.07942  -0.07942   2.35605
    Y6        2.55610   0.03160   0.00000  -0.02088  -0.02179   2.53431
    Z6        0.00013  -0.00000   0.00000   0.00002   0.00002   0.00015
    X7       -4.06703  -0.00082   0.00000   0.01138   0.01138  -4.05566
    Y7        6.31974   0.00318   0.00000  -0.00523  -0.00614   6.31361
    Z7       -0.00010   0.00000   0.00000  -0.00001  -0.00000  -0.00010
    X8        0.00001  -0.00000   0.00000  -0.00000  -0.00000   0.00000
    Y8        8.46029   0.00038   0.00000   0.02209   0.02118   8.48147
    Z8       -0.00004  -0.00000   0.00000  -0.00003  -0.00002  -0.00006
    X9        4.06704   0.00083   0.00000  -0.01138  -0.01137   4.05566
    Y9        6.31974   0.00318   0.00000  -0.00523  -0.00613   6.31361
    Z9        0.00004   0.00000   0.00000  -0.00002  -0.00001   0.00003
   X10        7.02067  -0.00947   0.00000  -0.04135  -0.04135   6.97932
   Y10        1.10471  -0.00581   0.00000  -0.01148  -0.01239   1.09233
   Z10       -0.00008   0.00000   0.00000   0.00001   0.00001  -0.00007
   X11        3.66717   0.00128   0.00000  -0.04211  -0.04211   3.62506
   Y11       -1.72684   0.00430   0.00000   0.00382   0.00292  -1.72392
   Z11        0.00027  -0.00002   0.00000  -0.00007  -0.00007   0.00020
   X12        7.96473   0.00989   0.00000  -0.02554  -0.02554   7.93919
   Y12       -1.39955   0.00521   0.00000   0.00786   0.00695  -1.39259
   Z12       -0.00019   0.00000   0.00000   0.00002   0.00002  -0.00016
   X13        8.65230   0.00920   0.00000  -0.03366  -0.03366   8.61864
   Y13        3.14361   0.00393   0.00000   0.00134   0.00043   3.14404
   Z13       -0.00015  -0.00000   0.00000   0.00000   0.00000  -0.00015
   X14       10.55083   0.00044   0.00000  -0.02746  -0.02746  10.52337
   Y14       -1.87661   0.00321   0.00000   0.00173   0.00083  -1.87578
   Z14       -0.00038   0.00000   0.00000   0.00002   0.00002  -0.00036
   X15       11.26750  -0.01031   0.00000  -0.04381  -0.04381  11.22369
   Y15        2.65655   0.00509   0.00000   0.00173   0.00083   2.65738
   Z15       -0.00035   0.00000   0.00000  -0.00000   0.00000  -0.00035
   X16        7.97241  -0.00078   0.00000  -0.03159  -0.03159   7.94082
   Y16        5.07388   0.00016   0.00000   0.00220   0.00130   5.07518
   Z16       -0.00002  -0.00000   0.00000  -0.00001  -0.00001  -0.00003
   X17       12.18960   0.00006   0.00000  -0.03081  -0.03081  12.15878
   Y17        0.20486  -0.00822   0.00000  -0.00634  -0.00725   0.19762
   Z17       -0.00047  -0.00000   0.00000   0.00001   0.00001  -0.00047
   X18       11.28251  -0.00045   0.00000  -0.02702  -0.02702  11.25549
   Y18       -3.79314  -0.00018   0.00000   0.00097   0.00006  -3.79308
   Z18       -0.00042  -0.00000   0.00000   0.00001   0.00001  -0.00041
   X19       12.57126   0.00007   0.00000  -0.03739  -0.03739  12.53387
   Y19        4.23936   0.00036   0.00000   0.00027  -0.00064   4.23872
   Z19       -0.00038  -0.00000   0.00000  -0.00001  -0.00001  -0.00039
   X20       14.21812  -0.00054   0.00000  -0.02965  -0.02965  14.18846
   Y20       -0.11512  -0.00039   0.00000  -0.00577  -0.00668  -0.12180
   Z20       -0.00062  -0.00000   0.00000  -0.00000  -0.00000  -0.00062
   X21       -7.02068   0.00949   0.00000   0.04138   0.04138  -6.97930
   Y21        1.10476  -0.00589   0.00000  -0.01153  -0.01244   1.09232
   Z21       -0.00010   0.00000   0.00000   0.00001   0.00001  -0.00009
   X22       -3.66717  -0.00127   0.00000   0.04211   0.04211  -3.62506
   Y22       -1.72684   0.00430   0.00000   0.00382   0.00292  -1.72393
   Z22        0.00022  -0.00002   0.00000  -0.00007  -0.00007   0.00015
   X23       -7.96478  -0.00982   0.00000   0.02560   0.02560  -7.93918
   Y23       -1.39959   0.00525   0.00000   0.00788   0.00697  -1.39261
   Z23       -0.00016   0.00000   0.00000   0.00003   0.00003  -0.00013
   X24       -8.65230  -0.00920   0.00000   0.03365   0.03366  -8.61864
   Y24        3.14354   0.00400   0.00000   0.00137   0.00046   3.14401
   Z24       -0.00014   0.00000   0.00000   0.00000   0.00001  -0.00013
   X25      -10.55079  -0.00049   0.00000   0.02744   0.02744 -10.52335
   Y25       -1.87659   0.00316   0.00000   0.00171   0.00080  -1.87578
   Z25       -0.00022   0.00000   0.00000   0.00001   0.00001  -0.00020
   X26      -11.26747   0.01029   0.00000   0.04378   0.04378 -11.22369
   Y26        2.65658   0.00502   0.00000   0.00170   0.00079   2.65737
   Z26       -0.00022  -0.00000   0.00000  -0.00000  -0.00000  -0.00022
   X27       -7.97241   0.00078   0.00000   0.03157   0.03157  -7.94083
   Y27        5.07389   0.00014   0.00000   0.00218   0.00127   5.07516
   Z27       -0.00006  -0.00000   0.00000  -0.00001  -0.00000  -0.00006
   X28      -12.18961  -0.00004   0.00000   0.03082   0.03082 -12.15878
   Y28        0.20479  -0.00815   0.00000  -0.00629  -0.00720   0.19759
   Z28       -0.00025  -0.00000   0.00000  -0.00000   0.00000  -0.00025
   X29      -11.28250   0.00046   0.00000   0.02702   0.02702 -11.25548
   Y29       -3.79318  -0.00016   0.00000   0.00100   0.00009  -3.79309
   Z29       -0.00017  -0.00000   0.00000   0.00000  -0.00000  -0.00018
   X30      -12.57125  -0.00008   0.00000   0.03737   0.03737 -12.53388
   Y30        4.23933   0.00038   0.00000   0.00027  -0.00064   4.23869
   Z30       -0.00021  -0.00000   0.00000  -0.00001  -0.00001  -0.00022
   X31      -14.21810   0.00053   0.00000   0.02964   0.02964 -14.18846
   Y31       -0.11514  -0.00040   0.00000  -0.00576  -0.00667  -0.12180
   Z31       -0.00028  -0.00000   0.00000  -0.00001  -0.00001  -0.00029
   X32       -4.39003  -0.01717   0.00000   0.03598   0.03598  -4.35404
   Y32        0.88835  -0.04716   0.00000  -0.05028  -0.05119   0.83716
   Z32        0.00011   0.00000   0.00000  -0.00000  -0.00000   0.00011
   X33       -5.94865   0.02114   0.00000   0.05619   0.05619  -5.89246
   Y33       -3.03255   0.01655   0.00000   0.02542   0.02451  -3.00804
   Z33       -0.00006   0.00001   0.00000   0.00002   0.00002  -0.00004
   X34        4.39005   0.01715   0.00000  -0.03599  -0.03599   4.35406
   Y34        0.88836  -0.04717   0.00000  -0.05028  -0.05119   0.83717
   Z34        0.00019   0.00000   0.00000  -0.00001  -0.00001   0.00018
   X35        5.94869  -0.02117   0.00000  -0.05620  -0.05620   5.89249
   Y35       -3.03254   0.01655   0.00000   0.02542   0.02451  -3.00804
   Z35       -0.00001   0.00001   0.00000   0.00001   0.00000  -0.00001
   X36        6.11361  -0.00031   0.00000  -0.02584  -0.02584   6.08777
   Y36       -5.72767  -0.00799   0.00000   0.01368   0.01277  -5.71490
   Z36        0.00003  -0.00000   0.00000   0.00000  -0.00000   0.00003
   X37        7.09181   0.00051   0.00000  -0.00664  -0.00664   7.08517
   Y37       -6.43772   0.00189   0.00000   0.03697   0.03606  -6.40166
   Z37       -1.68600   0.00053   0.00000   0.00244   0.00244  -1.68356
   X38        7.09075   0.00051   0.00000  -0.00667  -0.00667   7.08408
   Y38       -6.43783   0.00189   0.00000   0.03696   0.03605  -6.40178
   Z38        1.68665  -0.00053   0.00000  -0.00242  -0.00243   1.68422
   X39        4.19733   0.00052   0.00000  -0.01518  -0.01518   4.18216
   Y39       -6.50026   0.00127   0.00000  -0.00187  -0.00278  -6.50304
   Z39       -0.00064   0.00000   0.00000  -0.00001  -0.00002  -0.00065
   X40       -6.11360   0.00031   0.00000   0.02584   0.02584  -6.08776
   Y40       -5.72768  -0.00799   0.00000   0.01368   0.01277  -5.71491
   Z40        0.00010  -0.00000   0.00000   0.00001   0.00000   0.00010
   X41       -7.09060  -0.00051   0.00000   0.00667   0.00667  -7.08392
   Y41       -6.43778   0.00189   0.00000   0.03696   0.03605  -6.40173
   Z41        1.68682  -0.00053   0.00000  -0.00242  -0.00242   1.68440
   X42       -7.09193  -0.00051   0.00000   0.00664   0.00664  -7.08529
   Y42       -6.43779   0.00189   0.00000   0.03698   0.03607  -6.40172
   Z42       -1.68583   0.00052   0.00000   0.00244   0.00244  -1.68339
   X43       -4.19731  -0.00052   0.00000   0.01517   0.01517  -4.18214
   Y43       -6.50027   0.00127   0.00000  -0.00188  -0.00279  -6.50306
   Z43       -0.00071   0.00000   0.00000  -0.00001  -0.00001  -0.00072
   X44       -0.00000   0.00000   0.00000   0.00000   0.00001   0.00000
   Y44       -2.37066   0.04346   0.00000   0.07826   0.07735  -2.29331
   Z44        0.00026   0.00000   0.00000  -0.00005  -0.00006   0.00020
         Item               Value     Threshold  Converged?
 Maximum Force            0.070620     0.000450     NO 
 RMS     Force            0.013096     0.000300     NO 
 Maximum Displacement     0.139266     0.001800     NO 
 RMS     Displacement     0.026186     0.001200     NO 
 Predicted change in Energy=-1.532583D-02
 GradGradGradGradGradGradGradGradGradGradGradGradGradGradGradGradGradGrad

 Unable to Open any file for archive entry.
 1\1\GINC-X11P1N5\Force\UPBE1PBE\GenECP\C22H17Co1N4(3)\MAYUMIAO\17-Jul-
 2024\0\\# pbe1pbe em=gd3bj genecp g09default scf=(xqc,maxcycle=64) for
 ce guess=read nosymm\\Title Card\\0,3\C,0.00000448,0.79759225,0.000098
 37\C,-1.2887987,1.35263152,0.00004212\C,-1.24766088,2.74855531,-0.0000
 0466\C,0.00000007,3.39083628,-0.00000279\C,1.24766818,2.74855787,0.000
 03123\C,1.28879819,1.35263003,0.00006934\H,-2.15218114,3.34426371,-0.0
 0005052\H,0.00000284,4.47699133,-0.00002227\H,2.15218356,3.34426305,0.
 00002202\C,3.71517938,0.58458797,-0.00004304\C,1.94058265,-0.91380455,
 0.00014281\C,4.21475506,-0.74060747,-0.00009835\C,4.57860066,1.6635259
 7,-0.00008187\C,5.58325684,-0.99305909,-0.00020165\C,5.96250467,1.4057
 8438,-0.00018524\H,4.21881945,2.68498409,-0.00001167\C,6.45045591,0.10
 840931,-0.00025027\H,5.9704467,-2.00724457,-0.00022344\H,6.65242382,2.
 24337098,-0.00019912\H,7.52390378,-0.06091823,-0.00032549\C,-3.7151845
 7,0.58461313,-0.00005398\C,-1.94058178,-0.91380666,0.00011638\C,-4.214
 77839,-0.74063,-0.00008433\C,-4.57859772,1.66349205,-0.00007413\C,-5.5
 8323496,-0.99304756,-0.00011389\C,-5.96249076,1.40580033,-0.00011464\H
 ,-4.21881579,2.68498659,-0.00003106\C,-6.45046153,0.10837163,-0.000134
 45\H,-5.97044294,-2.00726333,-0.0000918\H,-6.65241784,2.24335524,-0.00
 011245\H,-7.52389546,-0.06092773,-0.00015073\N,-2.32310229,0.47009365,
 0.00005687\N,-3.14789175,-1.60475818,-0.00003336\N,2.32311428,0.470101
 35,0.00010166\N,3.14790853,-1.60475353,-0.00000551\C,3.23518389,-3.030
 95197,0.00001728\H,3.75282456,-3.40669512,-0.89219322\H,3.75226391,-3.
 40675355,0.89253496\H,2.22113261,-3.4397909,-0.00033658\C,-3.2351778,-
 3.03095633,0.00005212\H,-3.75218168,-3.40672491,0.89262649\H,-3.752889
 44,-3.40673144,-0.89210082\H,-2.22112314,-3.43979688,-0.0003759\Co,-0.
 00000027,-1.25449872,0.0001351\\Version=ES64L-G16RevC.01\HF=-1212.1121
 458\S2=2.336794\S2-1=0.\S2A=2.008734\RMSD=9.003e-09\RMSF=1.310e-02\Dip
 ole=-0.0002036,-1.3327592,0.000248\Quadrupole=8.9273187,10.6819647,-19
 .6092834,-0.0001912,-0.0003743,-0.0019209\PG=C01 [X(C22H17Co1N4)]\\@
 The archive entry for this job was punched.


 O WAD SOME POWER THE GIFTIE GIE US       
 TO SEE OURSELS AS OTHERS SEE US.....     
 IT WOULD FRAE MONIE A BLUNDER FREE US,   
                     AND FOOLISH NOTION...
 WHAT AIRS IN DRESS AND GAIT WAD LEA'E US,
                     AND EV'N DEVOTION....
                                          
              (ROBERT BURNS 'TO A LOUSE') 
 Job cpu time:       0 days  0 hours 23 minutes 25.8 seconds.
 Elapsed time:       0 days  0 hours  0 minutes 25.7 seconds.
 File lengths (MBytes):  RWF=    184 Int=      0 D2E=      0 Chk=     72 Scr=      1
 Normal termination of Gaussian 16 at Wed Jul 17 21:31:04 2024.
