 Entering Gaussian System, Link 0=g16
 Input=JOBS/41_A.gjf
 Output=JOBS/41_A.log
 Initial command:
 /data/app/gaussian/C01-avx2//g16/l1.exe "/tmp/Gau-2109239.inp" -scrdir="/tmp/"
 Entering Link 1 = /data/app/gaussian/C01-avx2//g16/l1.exe PID=   2109240.
  
 Copyright (c) 1988-2019, Gaussian, Inc.  All Rights Reserved.
  
 This is part of the Gaussian(R) 16 program.  It is based on
 the Gaussian(R) 09 system (copyright 2009, Gaussian, Inc.),
 the Gaussian(R) 03 system (copyright 2003, Gaussian, Inc.),
 the Gaussian(R) 98 system (copyright 1998, Gaussian, Inc.),
 the Gaussian(R) 94 system (copyright 1995, Gaussian, Inc.),
 the Gaussian 92(TM) system (copyright 1992, Gaussian, Inc.),
 the Gaussian 90(TM) system (copyright 1990, Gaussian, Inc.),
 the Gaussian 88(TM) system (copyright 1988, Gaussian, Inc.),
 the Gaussian 86(TM) system (copyright 1986, Carnegie Mellon
 University), and the Gaussian 82(TM) system (copyright 1983,
 Carnegie Mellon University). Gaussian is a federally registered
 trademark of Gaussian, Inc.
  
 This software contains proprietary and confidential information,
 including trade secrets, belonging to Gaussian, Inc.
  
 This software is provided under written license and may be
 used, copied, transmitted, or stored only in accord with that
 written license.
  
 The following legend is applicable only to US Government
 contracts under FAR:
  
                    RESTRICTED RIGHTS LEGEND
  
 Use, reproduction and disclosure by the US Government is
 subject to restrictions as set forth in subparagraphs (a)
 and (c) of the Commercial Computer Software - Restricted
 Rights clause in FAR 52.227-19.
  
 Gaussian, Inc.
 340 Quinnipiac St., Bldg. 40, Wallingford CT 06492
  
  
 ---------------------------------------------------------------
 Warning -- This program may not be used in any manner that
 competes with the business of Gaussian, Inc. or will provide
 assistance to any competitor of Gaussian, Inc.  The licensee
 of this program is prohibited from giving any competitor of
 Gaussian, Inc. access to this program.  By using this program,
 the user acknowledges that Gaussian, Inc. is engaged in the
 business of creating and licensing software in the field of
 computational chemistry and represents and warrants to the
 licensee that it is not a competitor of Gaussian, Inc. and that
 it will not use this program in any manner prohibited above.
 ---------------------------------------------------------------
  

 Cite this work as:
 Gaussian 16, Revision C.01,
 M. J. Frisch, G. W. Trucks, H. B. Schlegel, G. E. Scuseria, 
 M. A. Robb, J. R. Cheeseman, G. Scalmani, V. Barone, 
 G. A. Petersson, H. Nakatsuji, X. Li, M. Caricato, A. V. Marenich, 
 J. Bloino, B. G. Janesko, R. Gomperts, B. Mennucci, H. P. Hratchian, 
 J. V. Ortiz, A. F. Izmaylov, J. L. Sonnenberg, D. Williams-Young, 
 F. Ding, F. Lipparini, F. Egidi, J. Goings, B. Peng, A. Petrone, 
 T. Henderson, D. Ranasinghe, V. G. Zakrzewski, J. Gao, N. Rega, 
 G. Zheng, W. Liang, M. Hada, M. Ehara, K. Toyota, R. Fukuda, 
 J. Hasegawa, M. Ishida, T. Nakajima, Y. Honda, O. Kitao, H. Nakai, 
 T. Vreven, K. Throssell, J. A. Montgomery, Jr., J. E. Peralta, 
 F. Ogliaro, M. J. Bearpark, J. J. Heyd, E. N. Brothers, K. N. Kudin, 
 V. N. Staroverov, T. A. Keith, R. Kobayashi, J. Normand, 
 K. Raghavachari, A. P. Rendell, J. C. Burant, S. S. Iyengar, 
 J. Tomasi, M. Cossi, J. M. Millam, M. Klene, C. Adamo, R. Cammi, 
 J. W. Ochterski, R. L. Martin, K. Morokuma, O. Farkas, 
 J. B. Foresman, and D. J. Fox, Gaussian, Inc., Wallingford CT, 2019.
 
 ******************************************
 Gaussian 16:  ES64L-G16RevC.01  3-Jul-2019
                17-Jul-2024 
 ******************************************
 %chk=a.chk
 %nprocshared=56
 Will use up to   56 processors via shared memory.
 %mem=96gb
 ----------------------------------------------------------------------
 # pbe1pbe em=gd3bj genecp g09default scf=(xqc,maxcycle=64) force guess
 =read nosymm
 ----------------------------------------------------------------------
 1/10=7,30=1,38=1,158=3,167=1/1,3;
 2/12=2,15=1,17=6,18=5,40=1/2;
 3/5=7,11=2,16=1,17=8,25=1,27=10,30=1,71=1,74=-13,75=-4,116=-2,124=41,158=3/1,2,3;
 4/5=1,60=-1/1;
 5/5=2,7=64,8=3,13=1,38=6,87=10/2,8;
 6/7=2,8=2,9=2,10=2,28=1,87=10/1;
 7/29=1,30=1,87=10/1,2,3,16;
 1/10=7,30=1,158=3,167=1/3;
 99//99;
 Using 2006 physical constants.
 ----------
 Title Card
 ----------
 Symbolic Z-matrix:
 Charge =  0 Multiplicity = 1
 6                     0.00001   0.79955   0.00016 
 6                    -1.29025   1.35124   0.00005 
 6                    -1.24819   2.74684  -0.00001 
 6                    0.         3.38818  0. 
 6                     1.2482    2.74684   0.00002 
 6                     1.29024   1.35124   0.00007 
 1                    -2.15289   3.34143  -0.00005 
 1                     0.        4.47399  -0.00003 
 1                     2.15289   3.34143   0.00002 
 6                     3.71818   0.5853   -0.00004 
 6                     1.94293  -0.91445   0.00014 
 6                     4.21768  -0.73998  -0.00009 
 6                     4.58154   1.66466  -0.00008 
 6                     5.58625  -0.99291  -0.0002 
 6                     5.96593   1.40708  -0.00019 
 1                     4.22188   2.68646  -0.00002 
 6                     6.45324   0.10944  -0.00025 
 1                     5.97298  -2.0072   -0.00022 
 1                     6.65626   2.24467  -0.0002 
 1                     7.52638  -0.06096  -0.00033 
 6                    -3.71819   0.58536  -0.00005 
 6                    -1.94293  -0.91445   0.00011 
 6                    -4.21773  -0.74002  -0.00008 
 6                    -4.58153   1.6646   -0.00008 
 6                    -5.58622  -0.99287  -0.00011 
 6                    -5.9659    1.40712  -0.00012 
 1                    -4.22187   2.68648  -0.00003 
 6                    -6.45326   0.10938  -0.00014 
 1                    -5.97298  -2.00723  -0.00009 
 1                    -6.65626   2.24465  -0.00011 
 1                    -7.52637  -0.06097  -0.00015 
 7                    -2.32542   0.46972   0.00005 
 7                    -3.15123  -1.6047   -0.00003 
 7                     2.32544   0.46973   0.00009 
 7                     3.15125  -1.60469   0. 
 6                     3.23988  -3.03087   0.00002 
 1                     3.75816  -3.40523  -0.89245 
 1                     3.75758  -3.4053    0.8928 
 1                     2.2268   -3.44187  -0.00035 
 6                    -3.23987  -3.03087   0.00005 
 1                    -3.75749  -3.40527   0.89289 
 1                    -3.75822  -3.40527  -0.89235 
 1                    -2.22679  -3.44187  -0.00039 
 27                    0.       -1.25436   0.00011 
 

 GradGradGradGradGradGradGradGradGradGradGradGradGradGradGradGradGradGrad
 Berny optimization.
 Initialization pass.
 Trust Radius=3.00D-01 FncErr=1.00D-07 GrdErr=1.00D-07 EigMax=2.50D+02 EigMin=1.00D-04
 Number of steps in this run=      2 maximum allowed number of steps=      2.
 GradGradGradGradGradGradGradGradGradGradGradGradGradGradGradGradGradGrad

                          Input orientation:                          
 ---------------------------------------------------------------------
 Center     Atomic      Atomic             Coordinates (Angstroms)
 Number     Number       Type             X           Y           Z
 ---------------------------------------------------------------------
      1          6           0        0.000006    0.799554    0.000160
      2          6           0       -1.290249    1.351242    0.000046
      3          6           0       -1.248189    2.746838   -0.000014
      4          6           0       -0.000001    3.388176   -0.000002
      5          6           0        1.248199    2.746843    0.000020
      6          6           0        1.290243    1.351239    0.000072
      7          1           0       -2.152886    3.341427   -0.000051
      8          1           0        0.000003    4.473993   -0.000027
      9          1           0        2.152886    3.341427    0.000019
     10          6           0        3.718179    0.585300   -0.000041
     11          6           0        1.942932   -0.914449    0.000136
     12          6           0        4.217679   -0.739976   -0.000092
     13          6           0        4.581537    1.664664   -0.000084
     14          6           0        5.586254   -0.992905   -0.000200
     15          6           0        5.965930    1.407076   -0.000188
     16          1           0        4.221881    2.686463   -0.000015
     17          6           0        6.453243    0.109443   -0.000252
     18          1           0        5.972984   -2.007200   -0.000221
     19          1           0        6.656263    2.244672   -0.000201
     20          1           0        7.526379   -0.060961   -0.000326
     21          6           0       -3.718194    0.585361   -0.000051
     22          6           0       -1.942928   -0.914451    0.000110
     23          6           0       -4.217728   -0.740018   -0.000079
     24          6           0       -4.581535    1.664596   -0.000076
     25          6           0       -5.586216   -0.992872   -0.000114
     26          6           0       -5.965905    1.407123   -0.000118
     27          1           0       -4.221874    2.686476   -0.000033
     28          6           0       -6.453259    0.109376   -0.000137
     29          1           0       -5.972983   -2.007227   -0.000091
     30          1           0       -6.656255    2.244652   -0.000114
     31          1           0       -7.526366   -0.060968   -0.000151
     32          7           0       -2.325416    0.469722    0.000052
     33          7           0       -3.151228   -1.604699   -0.000027
     34          7           0        2.325436    0.469734    0.000094
     35          7           0        3.151254   -1.604692    0.000002
     36          6           0        3.239876   -3.030870    0.000016
     37          1           0        3.758155   -3.405229   -0.892447
     38          1           0        3.757576   -3.405298    0.892800
     39          1           0        2.226799   -3.441867   -0.000349
     40          6           0       -3.239873   -3.030872    0.000052
     41          1           0       -3.757491   -3.405268    0.892893
     42          1           0       -3.758222   -3.405266   -0.892353
     43          1           0       -2.226789   -3.441872   -0.000389
     44         27           0        0.000000   -1.254359    0.000108
 ---------------------------------------------------------------------
                    Distance matrix (angstroms):
                    1          2          3          4          5
     1  C    0.000000
     2  C    1.403252   0.000000
     3  C    2.312986   1.396230   0.000000
     4  C    2.588622   2.411190   1.403313   0.000000
     5  C    2.312989   2.896794   2.496388   1.403322   0.000000
     6  C    1.403235   2.580492   2.896780   2.411191   1.396237
     7  H    3.331075   2.169097   1.082595   2.153392   3.452666
     8  H    3.674439   3.378805   2.130973   1.085817   2.130972
     9  H    3.331068   3.976935   3.452658   2.153395   1.082585
    10  C    3.724341   5.066657   5.416370   4.656284   3.282236
    11  C    2.590901   3.948014   4.856776   4.720971   3.726621
    12  C    4.489869   5.891558   6.483332   5.901734   4.579926
    13  C    4.662493   5.880145   5.929318   4.894996   3.504605
    14  C    5.866778   7.265075   7.790719   7.099304   5.727516
    15  C    5.996777   7.256393   7.337471   6.286262   4.904280
    16  H    4.624355   5.671542   5.470403   4.279800   2.974295
    17  C    6.490033   7.842431   8.140511   7.238401   5.835098
    18  H    6.599571   8.002104   8.645589   8.049014   6.702575
    19  H    6.811323   7.996578   7.920387   6.753773   5.431329
    20  H    7.575407   8.929012   9.212860   8.279067   6.877450
    21  C    3.724364   2.545878   3.282210   4.656257   5.416369
    22  C    2.590908   2.357829   3.726621   4.720971   4.856785
    23  C    4.489940   3.597709   4.579992   5.901797   6.483406
    24  C    4.662490   3.306169   3.504631   4.895015   5.929338
    25  C    5.866742   4.893895   5.727470   7.099252   7.790680
    26  C    5.996768   4.675990   4.904251   6.286221   7.337448
    27  H    4.624364   3.221378   2.974297   4.279789   5.470406
    28  C    6.490068   5.310265   5.835149   7.238444   8.140558
    29  H    6.599592   5.762579   6.702597   8.049030   8.645614
    30  H    6.811323   5.439872   5.431332   6.753767   7.920391
    31  H    7.575406   6.394021   6.877448   8.279056   9.212860
    32  N    2.348697   1.359651   2.519063   3.731613   4.237453
    33  N    3.963673   3.492969   4.749466   5.904153   6.187961
    34  N    2.348703   3.721590   4.237452   3.731617   2.519060
    35  N    3.963680   5.335212   6.187965   5.904163   4.749471
    36  C    5.016863   6.302772   7.316054   7.190338   6.111362
    37  H    5.709697   6.993350   7.981720   7.814765   6.704056
    38  H    5.709371   6.993011   7.981452   7.814587   6.703943
    39  H    4.790434   5.945042   7.097578   7.183879   6.265603
    40  C    5.016869   4.796244   6.111361   7.190337   7.316063
    41  H    5.709316   5.432205   6.703901   7.814530   7.981392
    42  H    5.709760   5.432461   6.704097   7.814817   7.981793
    43  H    4.790439   4.883754   6.265604   7.183880   7.097586
    44  Co   2.053913   2.907559   4.191366   4.642534   4.191373
                    6          7          8          9         10
     6  C    0.000000
     7  H    3.976932   0.000000
     8  H    3.378804   2.432618   0.000000
     9  H    2.169102   4.305772   2.432615   0.000000
    10  C    2.545886   6.485803   5.380220   3.169602   0.000000
    11  C    2.357826   5.906624   5.728026   4.261051   2.323950
    12  C    3.597647   7.565841   6.706286   4.573972   1.416282
    13  C    3.306184   6.940028   5.374271   2.951250   1.382178
    14  C    4.893948   8.870216   7.816213   5.529417   2.445493
    15  C    4.676021   8.346070   6.708075   4.275630   2.393262
    16  H    3.221385   6.408325   4.584705   2.170188   2.160695
    17  C    5.310238   9.192996   7.790610   5.379479   2.776151
    18  H    5.762566   9.728184   8.813760   6.572743   3.435869
    19  H    5.439889   8.877160   7.019663   4.635005   3.374293
    20  H    6.394037  10.259845   8.787045   6.360085   3.862647
    21  C    5.066657   3.169557   5.380190   6.485791   7.436373
    22  C    3.948005   4.261055   5.728029   5.906623   5.856397
    23  C    5.891613   4.574033   6.706353   7.565905   8.045812
    24  C    5.880133   2.951288   5.374309   6.940042   8.369595
    25  C    7.265022   5.529368   7.816166   8.870166   9.437287
    26  C    7.256363   4.275588   6.708036   8.346035   9.718892
    27  H    5.671534   2.170179   4.584699   6.408317   8.213366
    28  C    7.842452   5.379533   7.790666   9.193035  10.182566
    29  H    8.002109   6.572766   8.813783   9.728199  10.031940
    30  H    7.996563   4.635003   7.019668   8.877156  10.506300
    31  H    8.928994   6.360078   8.787042  10.259836  11.263102
    32  N    3.721568   2.876884   4.630525   5.319952   6.044700
    33  N    5.335188   5.045875   6.846952   7.252433   7.210051
    34  N    1.359660   5.319961   4.630522   2.876873   1.397530
    35  N    3.492977   7.252447   6.846955   5.045873   2.262182
    36  C    4.796243   8.347937   8.174335   6.464342   3.647664
    37  H    5.432418   9.014108   8.775094   6.992192   4.089292
    38  H    5.432249   9.013825   8.774948   6.992166   4.089448
    39  H    4.883748   8.074325   8.223105   6.783696   4.294448
    40  C    6.302765   6.464344   8.174338   8.347937   7.841631
    41  H    6.992933   6.992139   8.774898   9.013750   8.521010
    42  H    6.993408   6.992222   8.775148   9.014177   8.521584
    43  H    5.945034   6.783702   8.223109   8.074323   7.180582
    44  Co   2.907553   5.075053   5.728352   5.075053   4.148396
                   11         12         13         14         15
    11  C    0.000000
    12  C    2.281428   0.000000
    13  C    3.689723   2.432013   0.000000
    14  C    3.644167   1.391751   2.841150   0.000000
    15  C    4.644781   2.768793   1.408153   2.429829   0.000000
    16  H    4.261475   3.426442   1.083248   3.924190   2.162993
    17  C    4.625069   2.391497   2.433515   1.402441   1.386119
    18  H    4.175574   2.164937   3.926667   1.085520   3.414284
    19  H    5.674110   3.854194   2.154274   3.409813   1.085415
    20  H    5.648303   3.377656   3.413192   2.152349   2.142461
    21  C    5.856431   8.045782   8.369614   9.437356   9.718924
    22  C    3.885860   6.163077   7.015731   7.529591   8.242544
    23  C    6.163129   8.435407   9.121928   9.807244  10.407541
    24  C    7.015706   9.121849   9.163072  10.509341  10.550608
    25  C    7.529556   9.807156  10.509315  11.172470  11.798806
    26  C    8.242535  10.407469  10.550585  11.798835  11.931835
    27  H    7.139432   9.108602   8.862514  10.475554  10.267824
    28  C    8.458383  10.704687  11.143862  12.089868  12.486805
    29  H    7.990987  10.269154  11.175003  11.603655  12.417533
    30  H    9.161110  11.276101  11.252749  12.663365  12.649945
    31  H    9.507683  11.763658  12.230255  13.145696  13.571928
    32  N    4.487174   6.653981   7.009557   8.045732   8.344163
    33  N    5.140711   7.419470   8.395498   8.758874   9.601737
    34  N    1.436060   2.245881   2.553009   3.573829   3.759230
    35  N    1.391574   1.372952   3.568529   2.510679   4.122275
    36  C    2.482197   2.490842   4.883451   3.107859   5.208333
    37  H    3.208696   2.847987   5.213261   3.155528   5.369235
    38  H    3.208443   2.848314   5.213508   3.156129   5.369656
    39  H    2.543309   3.356161   5.623295   4.157324   6.123181
    40  C    5.598278   7.801493   9.122638   9.058357  10.219697
    41  H    6.284586   8.456036   9.800052   9.691372  10.885825
    42  H    6.285210   8.456648   9.800608   9.691989  10.886401
    43  H    4.875904   6.987948   8.510583   8.187862   9.520134
    44  Co   1.972441   4.248930   5.432419   5.592369   6.532653
                   16         17         18         19         20
    16  H    0.000000
    17  C    3.408814   0.000000
    18  H    5.009674   2.170444   0.000000
    19  H    2.474145   2.144859   4.306424   0.000000
    20  H    4.297447   1.086581   2.490157   2.464356   0.000000
    21  C    8.213368  10.182565  10.031964  10.506315  11.263133
    22  C    7.139429   8.458371   7.990979   9.161121   9.507693
    23  C    9.108665  10.704729  10.269195  11.276172  11.763723
    24  C    8.862524  11.143824  11.174970  11.252758  12.230255
    25  C   10.475508  12.089817  11.603618  12.663332  13.145669
    26  C   10.267798  12.486761  12.417514  12.649925  13.571919
    27  H    8.443755  10.981768  11.223445  10.887105  12.065234
    28  C   10.981803  12.906502  12.605213  13.282284  13.980676
    29  H   11.223457  12.605213  11.945967  13.325783  13.638942
    30  H   10.887105  13.282246  13.325762  13.312518  14.368820
    31  H   12.065227  13.980648  13.638925  14.368818  15.052746
    32  N    6.912383   8.786049   8.660172   9.155381   9.866079
    33  N    8.530932   9.756236   9.133085  10.535868  10.788624
    34  N    2.917258   4.143501   4.409060   4.680435   5.227949
    35  N    4.422698   3.720402   2.850294   5.206025   4.639486
    36  C    5.801054   4.493027   2.918523   6.285144   5.214831
    37  H    6.174155   4.518012   2.766951   6.412216   5.116593
    38  H    6.174322   4.518580   2.767706   6.412643   5.117239
    39  H    6.444903   5.520383   4.011504   7.208111   6.286181
    40  C    9.400303  10.189116   9.269554  11.214494  11.168373
    41  H   10.078535  10.835590   9.870886  11.881318  11.802880
    42  H   10.079061  10.836191   9.871517  11.881886  11.803487
    43  H    8.896170   9.378422   8.324335  10.547293  10.322541
    44  Co   5.775322   6.595779   6.020241   7.519910   7.620405
                   21         22         23         24         25
    21  C    0.000000
    22  C    2.324007   0.000000
    23  C    1.416392   2.281479   0.000000
    24  C    1.382065   3.689679   2.431980   0.000000
    25  C    2.445471   3.644132   1.391651   2.841042   0.000000
    26  C    2.393218   4.644787   2.768814   1.408110   2.429843
    27  H    2.160642   4.261487   3.426496   1.083325   3.924160
    28  C    2.776174   4.625074   2.391457   2.433529   1.402396
    29  H    3.435926   4.175584   2.164887   3.926629   1.085590
    30  H    3.374233   5.674098   3.854176   2.154282   3.409772
    31  H    3.862631   5.648294   3.377602   3.413152   2.152354
    32  N    1.397570   1.436048   2.245955   2.552997   3.573792
    33  N    2.262259   1.391557   1.372988   3.568483   2.510677
    34  N    6.044736   4.487192   6.654058   7.009560   8.045710
    35  N    7.210107   5.140731   7.419539   8.395490   8.758864
    36  C    7.841675   5.598275   7.801530   9.122602   9.058330
    37  H    8.521560   6.285140   8.456618   9.800504   9.691904
    38  H    8.521131   6.284660   8.456147   9.800092   9.691416
    39  H    7.180635   4.875905   6.987984   8.510545   8.187844
    40  C    3.647730   2.482197   2.490826   4.883388   3.107856
    41  H    4.089501   3.208406   2.848294   5.213441   3.156161
    42  H    4.089365   3.208729   2.847954   5.213205   3.155518
    43  H    4.294519   2.543311   3.356166   5.623241   4.157325
    44  Co   4.148438   1.972437   4.248974   5.432381   5.592333
                   26         27         28         29         30
    26  C    0.000000
    27  H    2.162958   0.000000
    28  C    1.386240   3.408889   0.000000
    29  H    3.414357   5.009713   2.170408   0.000000
    30  H    1.085375   2.474150   2.144904   4.306429   0.000000
    31  H    2.142506   4.297455   1.086543   2.490165   2.464341
    32  N    3.759239   2.917285   4.143541   4.409083   4.680443
    33  N    4.122315   4.422721   3.720412   2.850322   5.206028
    34  N    8.344161   6.912395   8.786088   8.660201   9.155387
    35  N    9.601750   8.530952   9.756264   9.133112  10.535876
    36  C   10.219696   9.400307  10.189113   9.269554  11.214480
    37  H   10.886337  10.078995  10.836127   9.871462  11.881808
    38  H   10.885897  10.078615  10.835655   9.870949  11.881376
    39  H    9.520142   8.896177   9.378419   8.324340  10.547282
    40  C    5.208363   5.801068   4.492995   2.918517   6.285127
    41  H    5.369699   6.174327   4.518560   2.767733   6.412635
    42  H    5.369267   6.174182   4.517962   2.766914   6.412196
    43  H    6.123213   6.444921   5.520363   4.011506   7.208101
    44  Co   6.532649   5.775327   6.595781   6.020245   7.519895
                   31         32         33         34         35
    31  H    0.000000
    32  N    5.227955   0.000000
    33  N    4.639498   2.232753   0.000000
    34  N    9.866086   4.650852   5.856373   0.000000
    35  N   10.788635   5.856373   6.302481   2.232760   0.000000
    36  C   11.168362   6.574696   6.548295   3.618070   1.428929
    37  H   11.803419   7.267850   7.195686   4.226660   2.099221
    38  H   11.802934   7.267432   7.195197   4.226561   2.099260
    39  H   10.322535   6.001932   5.683165   3.912844   2.056654
    40  C    5.214821   3.618064   1.428925   6.574717   6.548319
    41  H    5.117254   4.226529   2.099265   7.267374   7.195143
    42  H    5.116567   4.226682   2.099221   7.267941   7.195778
    43  H    6.286178   3.912837   2.056645   6.001950   5.683183
    44  Co   7.620392   2.894826   3.170643   2.894848   3.170667
                   36         37         38         39         40
    36  C    0.000000
    37  H    1.097838   0.000000
    38  H    1.097848   1.785247   0.000000
    39  H    1.093272   1.772634   1.772661   0.000000
    40  C    6.479749   7.064637   7.064098   5.482100   0.000000
    41  H    7.064033   7.724790   7.515067   6.050699   1.097847
    42  H    7.064692   7.516377   7.724894   6.051239   1.097835
    43  H    5.482094   6.051171   6.050764   4.453589   1.093279
    44  Co   3.694968   4.421157   4.420725   3.121510   3.694967
                   41         42         43         44
    41  H    0.000000
    42  H    1.785247   0.000000
    43  H    1.772666   1.772632   0.000000
    44  Co   4.420659   4.421213   3.121507   0.000000
 Symmetry turned off by external request.
 Stoichiometry    C22H17CoN4
 Framework group  C1[X(C22H17CoN4)]
 Deg. of freedom   126
 Full point group                 C1      NOp   1
 Rotational constants (GHZ):           0.4634541           0.0989900           0.0816525
 General basis read from cards:  (5D, 7F)
 ======================================================================================================
                                       Pseudopotential Parameters
 ======================================================================================================
  Center     Atomic      Valence      Angular      Power
  Number     Number     Electrons     Momentum     of R      Exponent        Coefficient   SO-Coeffient
 ======================================================================================================
    1          6
                                   No pseudopotential on this center.
    2          6
                                   No pseudopotential on this center.
    3          6
                                   No pseudopotential on this center.
    4          6
                                   No pseudopotential on this center.
    5          6
                                   No pseudopotential on this center.
    6          6
                                   No pseudopotential on this center.
    7          1
                                   No pseudopotential on this center.
    8          1
                                   No pseudopotential on this center.
    9          1
                                   No pseudopotential on this center.
   10          6
                                   No pseudopotential on this center.
   11          6
                                   No pseudopotential on this center.
   12          6
                                   No pseudopotential on this center.
   13          6
                                   No pseudopotential on this center.
   14          6
                                   No pseudopotential on this center.
   15          6
                                   No pseudopotential on this center.
   16          1
                                   No pseudopotential on this center.
   17          6
                                   No pseudopotential on this center.
   18          1
                                   No pseudopotential on this center.
   19          1
                                   No pseudopotential on this center.
   20          1
                                   No pseudopotential on this center.
   21          6
                                   No pseudopotential on this center.
   22          6
                                   No pseudopotential on this center.
   23          6
                                   No pseudopotential on this center.
   24          6
                                   No pseudopotential on this center.
   25          6
                                   No pseudopotential on this center.
   26          6
                                   No pseudopotential on this center.
   27          1
                                   No pseudopotential on this center.
   28          6
                                   No pseudopotential on this center.
   29          1
                                   No pseudopotential on this center.
   30          1
                                   No pseudopotential on this center.
   31          1
                                   No pseudopotential on this center.
   32          7
                                   No pseudopotential on this center.
   33          7
                                   No pseudopotential on this center.
   34          7
                                   No pseudopotential on this center.
   35          7
                                   No pseudopotential on this center.
   36          6
                                   No pseudopotential on this center.
   37          1
                                   No pseudopotential on this center.
   38          1
                                   No pseudopotential on this center.
   39          1
                                   No pseudopotential on this center.
   40          6
                                   No pseudopotential on this center.
   41          1
                                   No pseudopotential on this center.
   42          1
                                   No pseudopotential on this center.
   43          1
                                   No pseudopotential on this center.
   44         27           17
                                      F and up 
                                                     2        1.0000000        0.00000000    0.00000000
                                      S - F
                                                     2       23.6600000      283.96056600    0.00000000
                                                     2       10.6100000       47.15684600    0.00000000
                                      P - F
                                                     2       25.0400000      182.21223600    0.00000000
                                                     2       10.4400000       35.23335200    0.00000000
                                      D - F
                                                     2       29.5400000      -26.47533300    0.00000000
                                                     2       10.1800000       -1.82578700    0.00000000
 ======================================================================================================
   441 basis functions,   871 primitive gaussians,   473 cartesian basis functions
    97 alpha electrons       97 beta electrons
       nuclear repulsion energy      2475.6772587328 Hartrees.
 NAtoms=   44 NActive=   44 NUniq=   44 SFac= 1.00D+00 NAtFMM=   60 NAOKFM=F Big=F
 Integral buffers will be    131072 words long.
 Raffenetti 2 integral format.
 Two-electron integral symmetry is turned off.
 Nuclear repulsion after empirical dispersion term =     2475.6183556325 Hartrees.
 One-electron integrals computed using PRISM.
   1 Symmetry operations used in ECPInt.
 ECPInt:  NShTT=   11781 NPrTT=   71406 LenC2=    9480 LenP2D=   31901.
 LDataN:  DoStor=T MaxTD1= 6 Len=  172
 NBasis=   441 RedAO= T EigKep=  3.23D-04  NBF=   441
 NBsUse=   441 1.00D-06 EigRej= -1.00D+00 NBFU=   441
 Initial guess from the checkpoint file:  "a.chk"
 B after Tr=    -0.000000   -0.000024   -0.000005
         Rot=    1.000000   -0.000001    0.000000    0.000000 Ang=  -0.00 deg.
 Initial guess <Sx>= 0.0000 <Sy>= 0.0000 <Sz>= 0.0000 <S**2>= 0.0000 S= 0.0000
 Requested convergence on RMS density matrix=1.00D-08 within  64 cycles.
 Requested convergence on MAX density matrix=1.00D-06.
 Requested convergence on             energy=1.00D-06.
 No special actions if energy rises.
 SCF Done:  E(UPBE1PBE) =  -1212.11131105     A.U. after   16 cycles
            NFock= 16  Conv=0.59D-08     -V/T= 2.0554
 <Sx>= 0.0000 <Sy>= 0.0000 <Sz>= 0.0000 <S**2>= 0.0000 S= 0.0000
 <L.S>=  0.00000000000    
 Annihilation of the first spin contaminant:
 S**2 before annihilation     0.0000,   after    -0.0000
 QCSCF skips out because SCF is already converged.

 **********************************************************************

            Population analysis using the SCF Density.

 **********************************************************************

 Alpha  occ. eigenvalues --  -14.45868 -14.45868 -14.45369 -14.45368 -10.28554
 Alpha  occ. eigenvalues --  -10.28554 -10.27839 -10.27838 -10.27587 -10.27586
 Alpha  occ. eigenvalues --  -10.27280 -10.27280 -10.25398 -10.25397 -10.24227
 Alpha  occ. eigenvalues --  -10.24227 -10.24023 -10.24023 -10.23513 -10.23513
 Alpha  occ. eigenvalues --  -10.23454 -10.23454 -10.21477 -10.21474 -10.21058
 Alpha  occ. eigenvalues --  -10.19261  -3.83005  -2.34792  -2.34676  -2.30898
 Alpha  occ. eigenvalues --   -1.05717  -1.05657  -0.96932  -0.96609  -0.88169
 Alpha  occ. eigenvalues --   -0.87934  -0.84949  -0.80280  -0.78759  -0.77880
 Alpha  occ. eigenvalues --   -0.77781  -0.75572  -0.74960  -0.72967  -0.71743
 Alpha  occ. eigenvalues --   -0.66495  -0.65181  -0.64559  -0.64091  -0.62537
 Alpha  occ. eigenvalues --   -0.61345  -0.58902  -0.57201  -0.56614  -0.54103
 Alpha  occ. eigenvalues --   -0.53176  -0.52045  -0.49595  -0.49540  -0.48995
 Alpha  occ. eigenvalues --   -0.48289  -0.47884  -0.47547  -0.46596  -0.46115
 Alpha  occ. eigenvalues --   -0.45803  -0.45378  -0.45022  -0.44477  -0.43957
 Alpha  occ. eigenvalues --   -0.42399  -0.41879  -0.41063  -0.38516  -0.38410
 Alpha  occ. eigenvalues --   -0.38360  -0.37487  -0.36867  -0.36738  -0.36645
 Alpha  occ. eigenvalues --   -0.34860  -0.34702  -0.34437  -0.33840  -0.31594
 Alpha  occ. eigenvalues --   -0.29008  -0.26714  -0.25928  -0.24715  -0.24421
 Alpha  occ. eigenvalues --   -0.21622  -0.21324  -0.20502  -0.20120  -0.16334
 Alpha  occ. eigenvalues --   -0.15204  -0.14754
 Alpha virt. eigenvalues --   -0.04511  -0.02439  -0.00803  -0.00136   0.00815
 Alpha virt. eigenvalues --    0.01346   0.01948   0.03186   0.05373   0.05978
 Alpha virt. eigenvalues --    0.06182   0.07279   0.08745   0.09275   0.10037
 Alpha virt. eigenvalues --    0.10293   0.12596   0.13130   0.14026   0.14290
 Alpha virt. eigenvalues --    0.15213   0.15506   0.15915   0.16017   0.16499
 Alpha virt. eigenvalues --    0.16738   0.16976   0.17618   0.17783   0.18214
 Alpha virt. eigenvalues --    0.19141   0.19143   0.19712   0.20145   0.21901
 Alpha virt. eigenvalues --    0.22077   0.22320   0.22590   0.22712   0.23529
 Alpha virt. eigenvalues --    0.25698   0.25767   0.26332   0.27591   0.27676
 Alpha virt. eigenvalues --    0.28129   0.29373   0.29425   0.30490   0.30717
 Alpha virt. eigenvalues --    0.31600   0.33181   0.33536   0.34408   0.34430
 Alpha virt. eigenvalues --    0.36157   0.37660   0.37824   0.39295   0.39455
 Alpha virt. eigenvalues --    0.41531   0.42994   0.44426   0.44923   0.46013
 Alpha virt. eigenvalues --    0.47193   0.48018   0.50081   0.51228   0.51787
 Alpha virt. eigenvalues --    0.52444   0.53526   0.53727   0.55851   0.55947
 Alpha virt. eigenvalues --    0.56790   0.56831   0.56857   0.58097   0.58306
 Alpha virt. eigenvalues --    0.58546   0.59005   0.59225   0.60041   0.61337
 Alpha virt. eigenvalues --    0.61519   0.61833   0.63061   0.63114   0.63167
 Alpha virt. eigenvalues --    0.63301   0.63303   0.63351   0.63973   0.64363
 Alpha virt. eigenvalues --    0.65273   0.65567   0.66132   0.66867   0.67030
 Alpha virt. eigenvalues --    0.67656   0.67985   0.68308   0.69339   0.70862
 Alpha virt. eigenvalues --    0.72219   0.72480   0.73934   0.75798   0.76249
 Alpha virt. eigenvalues --    0.76286   0.76974   0.78130   0.79598   0.79950
 Alpha virt. eigenvalues --    0.81001   0.81812   0.82457   0.82982   0.83638
 Alpha virt. eigenvalues --    0.84190   0.84288   0.84969   0.86092   0.86647
 Alpha virt. eigenvalues --    0.86894   0.87155   0.87378   0.89577   0.90076
 Alpha virt. eigenvalues --    0.90388   0.91082   0.91569   0.92100   0.92749
 Alpha virt. eigenvalues --    0.93080   0.93428   0.95291   0.95351   0.95952
 Alpha virt. eigenvalues --    0.95979   0.97090   0.97700   0.97712   0.98098
 Alpha virt. eigenvalues --    0.98241   0.99976   1.00026   1.01626   1.02165
 Alpha virt. eigenvalues --    1.02827   1.03167   1.03856   1.06119   1.07136
 Alpha virt. eigenvalues --    1.08832   1.09574   1.10539   1.11471   1.13750
 Alpha virt. eigenvalues --    1.14711   1.15850   1.15868   1.16557   1.18251
 Alpha virt. eigenvalues --    1.18353   1.19038   1.20024   1.23633   1.24097
 Alpha virt. eigenvalues --    1.24463   1.25172   1.26462   1.27292   1.27401
 Alpha virt. eigenvalues --    1.29171   1.29211   1.30036   1.32600   1.33266
 Alpha virt. eigenvalues --    1.33736   1.36255   1.36417   1.36869   1.38841
 Alpha virt. eigenvalues --    1.40116   1.41527   1.42555   1.42674   1.43269
 Alpha virt. eigenvalues --    1.44941   1.45166   1.45312   1.45905   1.47365
 Alpha virt. eigenvalues --    1.47849   1.49174   1.49951   1.49961   1.50527
 Alpha virt. eigenvalues --    1.51183   1.51560   1.53001   1.53477   1.56721
 Alpha virt. eigenvalues --    1.57039   1.58436   1.62182   1.65247   1.65703
 Alpha virt. eigenvalues --    1.65777   1.70120   1.72442   1.72499   1.76567
 Alpha virt. eigenvalues --    1.77223   1.78122   1.79476   1.79652   1.81833
 Alpha virt. eigenvalues --    1.82259   1.85596   1.86234   1.86626   1.87182
 Alpha virt. eigenvalues --    1.88029   1.88483   1.89770   1.90828   1.91480
 Alpha virt. eigenvalues --    1.92787   1.94668   1.94831   1.96211   1.96599
 Alpha virt. eigenvalues --    1.97718   1.98272   1.98360   1.98663   1.98885
 Alpha virt. eigenvalues --    1.99295   2.00034   2.01189   2.02288   2.03277
 Alpha virt. eigenvalues --    2.05867   2.06432   2.06829   2.09625   2.09767
 Alpha virt. eigenvalues --    2.12081   2.12782   2.14225   2.14731   2.14916
 Alpha virt. eigenvalues --    2.15940   2.16492   2.16531   2.18867   2.19658
 Alpha virt. eigenvalues --    2.20366   2.21337   2.21626   2.22174   2.23486
 Alpha virt. eigenvalues --    2.24266   2.24911   2.26032   2.26998   2.27497
 Alpha virt. eigenvalues --    2.27507   2.27973   2.28173   2.28212   2.28727
 Alpha virt. eigenvalues --    2.32529   2.34474   2.38808   2.39116   2.40186
 Alpha virt. eigenvalues --    2.40249   2.43955   2.44115   2.45257   2.46467
 Alpha virt. eigenvalues --    2.51312   2.51429   2.52168   2.56806   2.58057
 Alpha virt. eigenvalues --    2.58699   2.59323   2.59775   2.60432   2.62213
 Alpha virt. eigenvalues --    2.63634   2.64997   2.66399   2.67913   2.68785
 Alpha virt. eigenvalues --    2.69383   2.69431   2.71591   2.73257   2.74475
 Alpha virt. eigenvalues --    2.74712   2.74869   2.77312   2.78595   2.79294
 Alpha virt. eigenvalues --    2.79806   2.82803   2.84508   2.88200   2.88338
 Alpha virt. eigenvalues --    2.93387   2.93432   2.97007   2.98386   2.99098
 Alpha virt. eigenvalues --    3.00445   3.05405   3.06832   3.14678   3.17597
 Alpha virt. eigenvalues --    3.18673   3.29067   3.38730   3.46323   3.46351
 Alpha virt. eigenvalues --    3.51556   3.51770   3.61297   5.66808   5.67155
 Alpha virt. eigenvalues --    5.67520   5.68240   5.68895   5.69796   5.71756
 Alpha virt. eigenvalues --   45.82289  45.96696  46.01306  63.11811
  Beta  occ. eigenvalues --  -14.45868 -14.45868 -14.45369 -14.45368 -10.28554
  Beta  occ. eigenvalues --  -10.28554 -10.27839 -10.27838 -10.27587 -10.27586
  Beta  occ. eigenvalues --  -10.27280 -10.27280 -10.25398 -10.25397 -10.24227
  Beta  occ. eigenvalues --  -10.24227 -10.24023 -10.24023 -10.23513 -10.23513
  Beta  occ. eigenvalues --  -10.23454 -10.23454 -10.21477 -10.21474 -10.21058
  Beta  occ. eigenvalues --  -10.19261  -3.83005  -2.34792  -2.34676  -2.30898
  Beta  occ. eigenvalues --   -1.05717  -1.05657  -0.96932  -0.96609  -0.88169
  Beta  occ. eigenvalues --   -0.87934  -0.84949  -0.80280  -0.78759  -0.77880
  Beta  occ. eigenvalues --   -0.77781  -0.75572  -0.74960  -0.72967  -0.71743
  Beta  occ. eigenvalues --   -0.66495  -0.65181  -0.64559  -0.64091  -0.62537
  Beta  occ. eigenvalues --   -0.61345  -0.58902  -0.57201  -0.56614  -0.54103
  Beta  occ. eigenvalues --   -0.53176  -0.52045  -0.49595  -0.49540  -0.48995
  Beta  occ. eigenvalues --   -0.48289  -0.47884  -0.47547  -0.46596  -0.46115
  Beta  occ. eigenvalues --   -0.45803  -0.45378  -0.45022  -0.44477  -0.43957
  Beta  occ. eigenvalues --   -0.42399  -0.41879  -0.41063  -0.38516  -0.38410
  Beta  occ. eigenvalues --   -0.38360  -0.37487  -0.36867  -0.36738  -0.36645
  Beta  occ. eigenvalues --   -0.34860  -0.34702  -0.34437  -0.33840  -0.31594
  Beta  occ. eigenvalues --   -0.29008  -0.26714  -0.25928  -0.24715  -0.24421
  Beta  occ. eigenvalues --   -0.21622  -0.21324  -0.20502  -0.20120  -0.16334
  Beta  occ. eigenvalues --   -0.15204  -0.14754
  Beta virt. eigenvalues --   -0.04511  -0.02439  -0.00803  -0.00136   0.00815
  Beta virt. eigenvalues --    0.01346   0.01948   0.03186   0.05373   0.05978
  Beta virt. eigenvalues --    0.06182   0.07279   0.08745   0.09275   0.10037
  Beta virt. eigenvalues --    0.10293   0.12596   0.13130   0.14026   0.14290
  Beta virt. eigenvalues --    0.15213   0.15506   0.15915   0.16017   0.16499
  Beta virt. eigenvalues --    0.16738   0.16976   0.17618   0.17783   0.18214
  Beta virt. eigenvalues --    0.19141   0.19143   0.19712   0.20145   0.21901
  Beta virt. eigenvalues --    0.22077   0.22320   0.22590   0.22712   0.23529
  Beta virt. eigenvalues --    0.25698   0.25767   0.26332   0.27591   0.27676
  Beta virt. eigenvalues --    0.28129   0.29373   0.29425   0.30490   0.30717
  Beta virt. eigenvalues --    0.31600   0.33181   0.33536   0.34408   0.34430
  Beta virt. eigenvalues --    0.36157   0.37660   0.37824   0.39295   0.39455
  Beta virt. eigenvalues --    0.41531   0.42994   0.44426   0.44923   0.46013
  Beta virt. eigenvalues --    0.47193   0.48018   0.50081   0.51228   0.51787
  Beta virt. eigenvalues --    0.52444   0.53526   0.53727   0.55851   0.55947
  Beta virt. eigenvalues --    0.56790   0.56831   0.56857   0.58097   0.58306
  Beta virt. eigenvalues --    0.58546   0.59005   0.59225   0.60041   0.61337
  Beta virt. eigenvalues --    0.61519   0.61833   0.63061   0.63114   0.63167
  Beta virt. eigenvalues --    0.63301   0.63303   0.63351   0.63973   0.64363
  Beta virt. eigenvalues --    0.65273   0.65567   0.66132   0.66867   0.67030
  Beta virt. eigenvalues --    0.67656   0.67985   0.68308   0.69339   0.70862
  Beta virt. eigenvalues --    0.72219   0.72480   0.73934   0.75798   0.76249
  Beta virt. eigenvalues --    0.76286   0.76974   0.78130   0.79598   0.79950
  Beta virt. eigenvalues --    0.81001   0.81812   0.82457   0.82982   0.83638
  Beta virt. eigenvalues --    0.84190   0.84288   0.84969   0.86092   0.86647
  Beta virt. eigenvalues --    0.86894   0.87155   0.87378   0.89577   0.90076
  Beta virt. eigenvalues --    0.90388   0.91082   0.91569   0.92100   0.92749
  Beta virt. eigenvalues --    0.93080   0.93428   0.95291   0.95351   0.95952
  Beta virt. eigenvalues --    0.95979   0.97090   0.97700   0.97712   0.98098
  Beta virt. eigenvalues --    0.98241   0.99976   1.00026   1.01626   1.02165
  Beta virt. eigenvalues --    1.02827   1.03167   1.03856   1.06119   1.07136
  Beta virt. eigenvalues --    1.08832   1.09574   1.10539   1.11471   1.13750
  Beta virt. eigenvalues --    1.14711   1.15850   1.15868   1.16557   1.18251
  Beta virt. eigenvalues --    1.18353   1.19038   1.20024   1.23633   1.24097
  Beta virt. eigenvalues --    1.24463   1.25172   1.26462   1.27292   1.27401
  Beta virt. eigenvalues --    1.29171   1.29211   1.30036   1.32600   1.33266
  Beta virt. eigenvalues --    1.33736   1.36255   1.36417   1.36869   1.38841
  Beta virt. eigenvalues --    1.40116   1.41527   1.42555   1.42674   1.43269
  Beta virt. eigenvalues --    1.44941   1.45166   1.45312   1.45905   1.47365
  Beta virt. eigenvalues --    1.47849   1.49174   1.49951   1.49961   1.50527
  Beta virt. eigenvalues --    1.51183   1.51560   1.53001   1.53477   1.56721
  Beta virt. eigenvalues --    1.57039   1.58436   1.62182   1.65247   1.65703
  Beta virt. eigenvalues --    1.65777   1.70120   1.72442   1.72499   1.76567
  Beta virt. eigenvalues --    1.77223   1.78122   1.79476   1.79652   1.81833
  Beta virt. eigenvalues --    1.82259   1.85596   1.86234   1.86626   1.87182
  Beta virt. eigenvalues --    1.88029   1.88483   1.89770   1.90828   1.91480
  Beta virt. eigenvalues --    1.92787   1.94668   1.94831   1.96211   1.96599
  Beta virt. eigenvalues --    1.97718   1.98272   1.98360   1.98663   1.98885
  Beta virt. eigenvalues --    1.99295   2.00034   2.01189   2.02288   2.03277
  Beta virt. eigenvalues --    2.05867   2.06432   2.06829   2.09625   2.09767
  Beta virt. eigenvalues --    2.12081   2.12782   2.14225   2.14731   2.14916
  Beta virt. eigenvalues --    2.15940   2.16492   2.16531   2.18867   2.19658
  Beta virt. eigenvalues --    2.20366   2.21337   2.21626   2.22174   2.23486
  Beta virt. eigenvalues --    2.24266   2.24911   2.26032   2.26998   2.27497
  Beta virt. eigenvalues --    2.27507   2.27973   2.28173   2.28212   2.28727
  Beta virt. eigenvalues --    2.32529   2.34474   2.38808   2.39116   2.40186
  Beta virt. eigenvalues --    2.40249   2.43955   2.44115   2.45257   2.46467
  Beta virt. eigenvalues --    2.51312   2.51429   2.52168   2.56806   2.58057
  Beta virt. eigenvalues --    2.58699   2.59323   2.59775   2.60432   2.62213
  Beta virt. eigenvalues --    2.63634   2.64997   2.66399   2.67913   2.68785
  Beta virt. eigenvalues --    2.69383   2.69431   2.71591   2.73257   2.74475
  Beta virt. eigenvalues --    2.74712   2.74869   2.77312   2.78595   2.79294
  Beta virt. eigenvalues --    2.79806   2.82803   2.84508   2.88200   2.88338
  Beta virt. eigenvalues --    2.93387   2.93432   2.97007   2.98386   2.99098
  Beta virt. eigenvalues --    3.00445   3.05405   3.06832   3.14678   3.17597
  Beta virt. eigenvalues --    3.18673   3.29067   3.38730   3.46323   3.46351
  Beta virt. eigenvalues --    3.51556   3.51770   3.61297   5.66808   5.67155
  Beta virt. eigenvalues --    5.67520   5.68240   5.68895   5.69796   5.71756
  Beta virt. eigenvalues --   45.82289  45.96696  46.01306  63.11811
          Condensed to atoms (all electrons):
               1          2          3          4          5          6
     1  C    5.092719   0.525782  -0.060610  -0.059470  -0.060610   0.525789
     2  C    0.525782   4.619465   0.518259  -0.019387  -0.040483  -0.017710
     3  C   -0.060610   0.518259   5.051561   0.537715  -0.030580  -0.040484
     4  C   -0.059470  -0.019387   0.537715   4.908508   0.537716  -0.019388
     5  C   -0.060610  -0.040483  -0.030580   0.537716   5.051562   0.518255
     6  C    0.525789  -0.017710  -0.040484  -0.019388   0.518255   4.619472
     7  H    0.006345  -0.039658   0.340050  -0.040685   0.003996   0.000907
     8  H    0.001575   0.002783  -0.036335   0.365038  -0.036335   0.002783
     9  H    0.006345   0.000907   0.003996  -0.040685   0.340052  -0.039658
    10  C    0.005321  -0.000037   0.000003   0.000112  -0.004376  -0.043711
    11  C    0.002269   0.001846  -0.000034   0.000022   0.003019  -0.061493
    12  C   -0.000577   0.000002  -0.000000   0.000000   0.000095   0.006659
    13  C    0.000114   0.000000  -0.000001   0.000039   0.001976  -0.003028
    14  C    0.000002  -0.000000   0.000000  -0.000000   0.000002  -0.000028
    15  C    0.000002  -0.000000   0.000000  -0.000001   0.000070   0.000049
    16  H   -0.000018   0.000000   0.000001   0.000068   0.000109   0.000794
    17  C    0.000000   0.000000   0.000000   0.000000  -0.000001  -0.000003
    18  H   -0.000000   0.000000   0.000000   0.000000  -0.000000   0.000002
    19  H   -0.000000   0.000000  -0.000000   0.000000   0.000001  -0.000002
    20  H    0.000000  -0.000000   0.000000  -0.000000  -0.000000  -0.000000
    21  C    0.005321  -0.043711  -0.004376   0.000112   0.000003  -0.000037
    22  C    0.002269  -0.061495   0.003018   0.000022  -0.000034   0.001846
    23  C   -0.000577   0.006660   0.000095   0.000000  -0.000000   0.000002
    24  C    0.000114  -0.003029   0.001976   0.000039  -0.000001   0.000000
    25  C    0.000002  -0.000028   0.000002  -0.000000   0.000000  -0.000000
    26  C    0.000002   0.000049   0.000070  -0.000001   0.000000  -0.000000
    27  H   -0.000018   0.000794   0.000108   0.000068   0.000001   0.000000
    28  C    0.000000  -0.000003  -0.000001   0.000000   0.000000   0.000000
    29  H   -0.000000   0.000002  -0.000000   0.000000   0.000000   0.000000
    30  H   -0.000000  -0.000002   0.000001   0.000000  -0.000000   0.000000
    31  H    0.000000  -0.000000  -0.000000  -0.000000   0.000000  -0.000000
    32  N   -0.040861   0.246110  -0.076815   0.004617   0.000009   0.005931
    33  N    0.001637   0.006027  -0.000153   0.000002   0.000000  -0.000032
    34  N   -0.040861   0.005930   0.000009   0.004617  -0.076814   0.246107
    35  N    0.001637  -0.000032   0.000000   0.000002  -0.000153   0.006027
    36  C   -0.000009   0.000000   0.000000  -0.000000   0.000002  -0.000027
    37  H   -0.000001  -0.000000   0.000000   0.000000  -0.000000   0.000003
    38  H   -0.000001  -0.000000   0.000000   0.000000  -0.000000   0.000003
    39  H   -0.000014   0.000001   0.000000  -0.000000   0.000000  -0.000006
    40  C   -0.000009  -0.000027   0.000002  -0.000000   0.000000   0.000000
    41  H   -0.000001   0.000003  -0.000000   0.000000   0.000000  -0.000000
    42  H   -0.000001   0.000003  -0.000000   0.000000   0.000000  -0.000000
    43  H   -0.000014  -0.000006   0.000000  -0.000000   0.000000   0.000001
    44  Co   0.257958  -0.056743   0.006941   0.002246   0.006941  -0.056744
               7          8          9         10         11         12
     1  C    0.006345   0.001575   0.006345   0.005321   0.002269  -0.000577
     2  C   -0.039658   0.002783   0.000907  -0.000037   0.001846   0.000002
     3  C    0.340050  -0.036335   0.003996   0.000003  -0.000034  -0.000000
     4  C   -0.040685   0.365038  -0.040685   0.000112   0.000022   0.000000
     5  C    0.003996  -0.036335   0.340052  -0.004376   0.003019   0.000095
     6  C    0.000907   0.002783  -0.039658  -0.043711  -0.061493   0.006659
     7  H    0.574852  -0.004200  -0.000089  -0.000000  -0.000000   0.000000
     8  H   -0.004200   0.553546  -0.004200  -0.000002   0.000001  -0.000000
     9  H   -0.000089  -0.004200   0.574849   0.000465  -0.000174  -0.000036
    10  C   -0.000000  -0.000002   0.000465   4.639559  -0.065694   0.516558
    11  C   -0.000000   0.000001  -0.000174  -0.065694   4.794651  -0.053396
    12  C    0.000000  -0.000000  -0.000036   0.516558  -0.053396   4.662164
    13  C   -0.000000   0.000002  -0.000246   0.534086   0.004225  -0.054949
    14  C   -0.000000   0.000000  -0.000000  -0.048398   0.004640   0.531358
    15  C   -0.000000   0.000000   0.000099  -0.006796  -0.000051  -0.037606
    16  H    0.000000  -0.000009   0.006060  -0.032843  -0.000146   0.003685
    17  C    0.000000  -0.000000   0.000002  -0.038675  -0.000054  -0.008640
    18  H    0.000000  -0.000000  -0.000000   0.003828  -0.000196  -0.037694
    19  H    0.000000   0.000000  -0.000008   0.001935   0.000003   0.000900
    20  H   -0.000000  -0.000000   0.000000   0.000876   0.000002   0.002293
    21  C    0.000464  -0.000002  -0.000000  -0.000000  -0.000006   0.000000
    22  C   -0.000174   0.000001  -0.000000  -0.000006  -0.010861  -0.000001
    23  C   -0.000036  -0.000000   0.000000   0.000000  -0.000001  -0.000000
    24  C   -0.000245   0.000002  -0.000000   0.000000   0.000000   0.000000
    25  C   -0.000000   0.000000  -0.000000  -0.000000   0.000000   0.000000
    26  C    0.000099   0.000000  -0.000000  -0.000000  -0.000000   0.000000
    27  H    0.006061  -0.000009   0.000000   0.000000   0.000000  -0.000000
    28  C    0.000002  -0.000000   0.000000   0.000000  -0.000000  -0.000000
    29  H   -0.000000  -0.000000   0.000000   0.000000   0.000000  -0.000000
    30  H   -0.000008   0.000000   0.000000   0.000000   0.000000  -0.000000
    31  H    0.000000  -0.000000  -0.000000   0.000000   0.000000   0.000000
    32  N   -0.003429  -0.000098   0.000009   0.000000   0.000235   0.000000
    33  N   -0.000000  -0.000000  -0.000000   0.000000   0.000019   0.000000
    34  N    0.000009  -0.000098  -0.003429   0.254663   0.349408  -0.041031
    35  N   -0.000000  -0.000000  -0.000000  -0.046453   0.301862   0.260048
    36  C   -0.000000   0.000000  -0.000000   0.005393  -0.044845  -0.048423
    37  H    0.000000  -0.000000   0.000000  -0.000124   0.000575  -0.001081
    38  H    0.000000  -0.000000   0.000000  -0.000124   0.000570  -0.001077
    39  H    0.000000   0.000000   0.000000   0.000008   0.000616   0.002688
    40  C   -0.000000   0.000000  -0.000000   0.000000   0.000011   0.000000
    41  H    0.000000  -0.000000   0.000000  -0.000000  -0.000000  -0.000000
    42  H    0.000000  -0.000000   0.000000  -0.000000  -0.000000  -0.000000
    43  H    0.000000   0.000000   0.000000  -0.000000  -0.000002  -0.000000
    44  Co  -0.000622   0.000125  -0.000622   0.006952   0.361243   0.005812
              13         14         15         16         17         18
     1  C    0.000114   0.000002   0.000002  -0.000018   0.000000  -0.000000
     2  C    0.000000  -0.000000  -0.000000   0.000000   0.000000   0.000000
     3  C   -0.000001   0.000000   0.000000   0.000001   0.000000   0.000000
     4  C    0.000039  -0.000000  -0.000001   0.000068   0.000000   0.000000
     5  C    0.001976   0.000002   0.000070   0.000109  -0.000001  -0.000000
     6  C   -0.003028  -0.000028   0.000049   0.000794  -0.000003   0.000002
     7  H   -0.000000  -0.000000  -0.000000   0.000000   0.000000   0.000000
     8  H    0.000002   0.000000   0.000000  -0.000009  -0.000000  -0.000000
     9  H   -0.000246  -0.000000   0.000099   0.006060   0.000002  -0.000000
    10  C    0.534086  -0.048398  -0.006796  -0.032843  -0.038675   0.003828
    11  C    0.004225   0.004640  -0.000051  -0.000146  -0.000054  -0.000196
    12  C   -0.054949   0.531358  -0.037606   0.003685  -0.008640  -0.037694
    13  C    5.021838  -0.045215   0.511828   0.356256  -0.035705   0.000272
    14  C   -0.045215   5.027073  -0.037732   0.000448   0.519097   0.362639
    15  C    0.511828  -0.037732   4.896438  -0.036206   0.554502   0.003931
    16  H    0.356256   0.000448  -0.036206   0.510528   0.003726   0.000013
    17  C   -0.035705   0.519097   0.554502   0.003726   4.887120  -0.035693
    18  H    0.000272   0.362639   0.003931   0.000013  -0.035693   0.532339
    19  H   -0.035300   0.004008   0.369157  -0.004000  -0.036146  -0.000149
    20  H    0.004009  -0.036477  -0.036371  -0.000149   0.368383  -0.004220
    21  C    0.000000  -0.000000  -0.000000   0.000000   0.000000   0.000000
    22  C    0.000000   0.000000  -0.000000   0.000000  -0.000000   0.000000
    23  C    0.000000   0.000000   0.000000  -0.000000  -0.000000  -0.000000
    24  C    0.000000  -0.000000   0.000000   0.000000   0.000000   0.000000
    25  C   -0.000000  -0.000000   0.000000  -0.000000  -0.000000   0.000000
    26  C    0.000000   0.000000  -0.000000  -0.000000  -0.000000   0.000000
    27  H    0.000000  -0.000000  -0.000000   0.000000   0.000000  -0.000000
    28  C    0.000000  -0.000000  -0.000000   0.000000   0.000000   0.000000
    29  H    0.000000   0.000000   0.000000  -0.000000   0.000000  -0.000000
    30  H   -0.000000  -0.000000   0.000000  -0.000000   0.000000   0.000000
    31  H   -0.000000   0.000000   0.000000  -0.000000   0.000000   0.000000
    32  N   -0.000000  -0.000000   0.000000   0.000000   0.000000  -0.000000
    33  N    0.000000  -0.000000   0.000000   0.000000   0.000000  -0.000000
    34  N   -0.075312   0.009187   0.004973  -0.004860  -0.000228  -0.000089
    35  N    0.009621  -0.081166  -0.000187  -0.000097   0.005280  -0.007112
    36  C   -0.000122  -0.002567   0.000009   0.000003  -0.000108   0.004135
    37  H   -0.000009   0.002485  -0.000001  -0.000000  -0.000004   0.000505
    38  H   -0.000009   0.002482  -0.000001  -0.000000  -0.000004   0.000503
    39  H    0.000005   0.000011  -0.000000  -0.000000   0.000001  -0.000031
    40  C    0.000000   0.000000  -0.000000   0.000000   0.000000  -0.000000
    41  H   -0.000000  -0.000000   0.000000  -0.000000   0.000000  -0.000000
    42  H   -0.000000  -0.000000   0.000000  -0.000000   0.000000  -0.000000
    43  H   -0.000000   0.000000  -0.000000   0.000000  -0.000000   0.000000
    44  Co  -0.001248  -0.001296   0.000162   0.000050   0.000141   0.000023
              19         20         21         22         23         24
     1  C   -0.000000   0.000000   0.005321   0.002269  -0.000577   0.000114
     2  C    0.000000  -0.000000  -0.043711  -0.061495   0.006660  -0.003029
     3  C   -0.000000   0.000000  -0.004376   0.003018   0.000095   0.001976
     4  C    0.000000  -0.000000   0.000112   0.000022   0.000000   0.000039
     5  C    0.000001  -0.000000   0.000003  -0.000034  -0.000000  -0.000001
     6  C   -0.000002  -0.000000  -0.000037   0.001846   0.000002   0.000000
     7  H    0.000000  -0.000000   0.000464  -0.000174  -0.000036  -0.000245
     8  H    0.000000  -0.000000  -0.000002   0.000001  -0.000000   0.000002
     9  H   -0.000008   0.000000  -0.000000  -0.000000   0.000000  -0.000000
    10  C    0.001935   0.000876  -0.000000  -0.000006   0.000000   0.000000
    11  C    0.000003   0.000002  -0.000006  -0.010861  -0.000001   0.000000
    12  C    0.000900   0.002293   0.000000  -0.000001  -0.000000   0.000000
    13  C   -0.035300   0.004009   0.000000   0.000000   0.000000   0.000000
    14  C    0.004008  -0.036477  -0.000000   0.000000   0.000000  -0.000000
    15  C    0.369157  -0.036371  -0.000000  -0.000000   0.000000   0.000000
    16  H   -0.004000  -0.000149   0.000000   0.000000  -0.000000   0.000000
    17  C   -0.036146   0.368383   0.000000  -0.000000  -0.000000   0.000000
    18  H   -0.000149  -0.004220   0.000000   0.000000  -0.000000   0.000000
    19  H    0.529859  -0.004538   0.000000   0.000000  -0.000000  -0.000000
    20  H   -0.004538   0.534557   0.000000   0.000000   0.000000  -0.000000
    21  C    0.000000   0.000000   4.639508  -0.065688   0.516536   0.534104
    22  C    0.000000   0.000000  -0.065688   4.794630  -0.053395   0.004225
    23  C   -0.000000   0.000000   0.516536  -0.053395   4.662153  -0.054955
    24  C   -0.000000  -0.000000   0.534104   0.004225  -0.054955   5.021886
    25  C   -0.000000   0.000000  -0.048398   0.004640   0.531375  -0.045233
    26  C    0.000000   0.000000  -0.006785  -0.000051  -0.037610   0.511818
    27  H   -0.000000  -0.000000  -0.032841  -0.000146   0.003685   0.356242
    28  C    0.000000   0.000000  -0.038678  -0.000054  -0.008630  -0.035698
    29  H    0.000000   0.000000   0.003828  -0.000196  -0.037697   0.000272
    30  H    0.000000   0.000000   0.001934   0.000003   0.000900  -0.035294
    31  H    0.000000   0.000000   0.000876   0.000002   0.002293   0.004009
    32  N    0.000000   0.000000   0.254656   0.349406  -0.041024  -0.075330
    33  N   -0.000000  -0.000000  -0.046445   0.301862   0.260042   0.009625
    34  N   -0.000084   0.000004   0.000000   0.000235   0.000000  -0.000000
    35  N    0.000004  -0.000095   0.000000   0.000019   0.000000   0.000000
    36  C   -0.000000  -0.000002   0.000000   0.000011   0.000000   0.000000
    37  H   -0.000000  -0.000000  -0.000000  -0.000000  -0.000000  -0.000000
    38  H   -0.000000  -0.000000  -0.000000  -0.000000  -0.000000  -0.000000
    39  H   -0.000000  -0.000000  -0.000000  -0.000002  -0.000000  -0.000000
    40  C    0.000000  -0.000000   0.005392  -0.044846  -0.048425  -0.000122
    41  H   -0.000000   0.000000  -0.000124   0.000569  -0.001078  -0.000009
    42  H   -0.000000   0.000000  -0.000124   0.000576  -0.001083  -0.000009
    43  H   -0.000000   0.000000   0.000008   0.000616   0.002688   0.000005
    44  Co   0.000012  -0.000010   0.006952   0.361241   0.005812  -0.001248
              25         26         27         28         29         30
     1  C    0.000002   0.000002  -0.000018   0.000000  -0.000000  -0.000000
     2  C   -0.000028   0.000049   0.000794  -0.000003   0.000002  -0.000002
     3  C    0.000002   0.000070   0.000108  -0.000001  -0.000000   0.000001
     4  C   -0.000000  -0.000001   0.000068   0.000000   0.000000   0.000000
     5  C    0.000000   0.000000   0.000001   0.000000   0.000000  -0.000000
     6  C   -0.000000  -0.000000   0.000000   0.000000   0.000000   0.000000
     7  H   -0.000000   0.000099   0.006061   0.000002  -0.000000  -0.000008
     8  H    0.000000   0.000000  -0.000009  -0.000000  -0.000000   0.000000
     9  H   -0.000000  -0.000000   0.000000   0.000000   0.000000   0.000000
    10  C   -0.000000  -0.000000   0.000000   0.000000   0.000000   0.000000
    11  C    0.000000  -0.000000   0.000000  -0.000000   0.000000   0.000000
    12  C    0.000000   0.000000  -0.000000  -0.000000  -0.000000  -0.000000
    13  C   -0.000000   0.000000   0.000000   0.000000   0.000000  -0.000000
    14  C   -0.000000   0.000000  -0.000000  -0.000000   0.000000  -0.000000
    15  C    0.000000  -0.000000  -0.000000  -0.000000   0.000000   0.000000
    16  H   -0.000000  -0.000000   0.000000   0.000000  -0.000000  -0.000000
    17  C   -0.000000  -0.000000   0.000000   0.000000   0.000000   0.000000
    18  H    0.000000   0.000000  -0.000000   0.000000  -0.000000   0.000000
    19  H   -0.000000   0.000000  -0.000000   0.000000   0.000000   0.000000
    20  H    0.000000   0.000000  -0.000000   0.000000   0.000000   0.000000
    21  C   -0.048398  -0.006785  -0.032841  -0.038678   0.003828   0.001934
    22  C    0.004640  -0.000051  -0.000146  -0.000054  -0.000196   0.000003
    23  C    0.531375  -0.037610   0.003685  -0.008630  -0.037697   0.000900
    24  C   -0.045233   0.511818   0.356242  -0.035698   0.000272  -0.035294
    25  C    5.027094  -0.037726   0.000448   0.519093   0.362630   0.004008
    26  C   -0.037726   4.896476  -0.036209   0.554471   0.003931   0.369162
    27  H    0.000448  -0.036209   0.510544   0.003726   0.000013  -0.004001
    28  C    0.519093   0.554471   0.003726   4.887156  -0.035696  -0.036146
    29  H    0.362630   0.003931   0.000013  -0.035696   0.532361  -0.000149
    30  H    0.004008   0.369162  -0.004001  -0.036146  -0.000149   0.529841
    31  H   -0.036471  -0.036371  -0.000149   0.368388  -0.004221  -0.004535
    32  N    0.009191   0.004973  -0.004860  -0.000228  -0.000089  -0.000084
    33  N   -0.081180  -0.000187  -0.000097   0.005280  -0.007113   0.000004
    34  N   -0.000000   0.000000   0.000000   0.000000  -0.000000   0.000000
    35  N   -0.000000   0.000000   0.000000   0.000000  -0.000000  -0.000000
    36  C    0.000000  -0.000000   0.000000   0.000000  -0.000000   0.000000
    37  H   -0.000000   0.000000  -0.000000   0.000000  -0.000000  -0.000000
    38  H   -0.000000   0.000000  -0.000000   0.000000  -0.000000  -0.000000
    39  H    0.000000  -0.000000   0.000000  -0.000000   0.000000  -0.000000
    40  C   -0.002565   0.000009   0.000003  -0.000108   0.004135  -0.000000
    41  H    0.002482  -0.000001  -0.000000  -0.000004   0.000503  -0.000000
    42  H    0.002485  -0.000001  -0.000000  -0.000004   0.000505  -0.000000
    43  H    0.000011  -0.000000  -0.000000   0.000001  -0.000031  -0.000000
    44  Co  -0.001296   0.000162   0.000050   0.000141   0.000023   0.000012
              31         32         33         34         35         36
     1  C    0.000000  -0.040861   0.001637  -0.040861   0.001637  -0.000009
     2  C   -0.000000   0.246110   0.006027   0.005930  -0.000032   0.000000
     3  C   -0.000000  -0.076815  -0.000153   0.000009   0.000000   0.000000
     4  C   -0.000000   0.004617   0.000002   0.004617   0.000002  -0.000000
     5  C    0.000000   0.000009   0.000000  -0.076814  -0.000153   0.000002
     6  C   -0.000000   0.005931  -0.000032   0.246107   0.006027  -0.000027
     7  H    0.000000  -0.003429  -0.000000   0.000009  -0.000000  -0.000000
     8  H   -0.000000  -0.000098  -0.000000  -0.000098  -0.000000   0.000000
     9  H   -0.000000   0.000009  -0.000000  -0.003429  -0.000000  -0.000000
    10  C    0.000000   0.000000   0.000000   0.254663  -0.046453   0.005393
    11  C    0.000000   0.000235   0.000019   0.349408   0.301862  -0.044845
    12  C    0.000000   0.000000   0.000000  -0.041031   0.260048  -0.048423
    13  C   -0.000000  -0.000000   0.000000  -0.075312   0.009621  -0.000122
    14  C    0.000000  -0.000000  -0.000000   0.009187  -0.081166  -0.002567
    15  C    0.000000   0.000000   0.000000   0.004973  -0.000187   0.000009
    16  H   -0.000000   0.000000   0.000000  -0.004860  -0.000097   0.000003
    17  C    0.000000   0.000000   0.000000  -0.000228   0.005280  -0.000108
    18  H    0.000000  -0.000000  -0.000000  -0.000089  -0.007112   0.004135
    19  H    0.000000   0.000000  -0.000000  -0.000084   0.000004  -0.000000
    20  H    0.000000   0.000000  -0.000000   0.000004  -0.000095  -0.000002
    21  C    0.000876   0.254656  -0.046445   0.000000   0.000000   0.000000
    22  C    0.000002   0.349406   0.301862   0.000235   0.000019   0.000011
    23  C    0.002293  -0.041024   0.260042   0.000000   0.000000   0.000000
    24  C    0.004009  -0.075330   0.009625  -0.000000   0.000000   0.000000
    25  C   -0.036471   0.009191  -0.081180  -0.000000  -0.000000   0.000000
    26  C   -0.036371   0.004973  -0.000187   0.000000   0.000000  -0.000000
    27  H   -0.000149  -0.004860  -0.000097   0.000000   0.000000   0.000000
    28  C    0.368388  -0.000228   0.005280   0.000000   0.000000   0.000000
    29  H   -0.004221  -0.000089  -0.007113  -0.000000  -0.000000  -0.000000
    30  H   -0.004535  -0.000084   0.000004   0.000000  -0.000000   0.000000
    31  H    0.534539   0.000004  -0.000095   0.000000  -0.000000  -0.000000
    32  N    0.000004   7.221756  -0.059737  -0.000045   0.000000   0.000000
    33  N   -0.000095  -0.059737   7.063863   0.000000  -0.000000  -0.000000
    34  N    0.000000  -0.000045   0.000000   7.221724  -0.059735   0.004577
    35  N   -0.000000   0.000000  -0.000000  -0.059735   7.063844   0.300106
    36  C   -0.000000   0.000000  -0.000000   0.004577   0.300106   5.059840
    37  H    0.000000   0.000000   0.000000  -0.000066  -0.040980   0.376995
    38  H    0.000000   0.000000   0.000000  -0.000066  -0.040984   0.377002
    39  H    0.000000  -0.000000   0.000000   0.000150  -0.032311   0.376280
    40  C   -0.000002   0.004577   0.300104   0.000000  -0.000000   0.000000
    41  H   -0.000000  -0.000065  -0.040984   0.000000   0.000000  -0.000000
    42  H   -0.000000  -0.000066  -0.040979   0.000000   0.000000  -0.000000
    43  H   -0.000000   0.000150  -0.032313  -0.000000   0.000000  -0.000000
    44  Co  -0.000010  -0.071879  -0.053277  -0.071878  -0.053277  -0.007058
              37         38         39         40         41         42
     1  C   -0.000001  -0.000001  -0.000014  -0.000009  -0.000001  -0.000001
     2  C   -0.000000  -0.000000   0.000001  -0.000027   0.000003   0.000003
     3  C    0.000000   0.000000   0.000000   0.000002  -0.000000  -0.000000
     4  C    0.000000   0.000000  -0.000000  -0.000000   0.000000   0.000000
     5  C   -0.000000  -0.000000   0.000000   0.000000   0.000000   0.000000
     6  C    0.000003   0.000003  -0.000006   0.000000  -0.000000  -0.000000
     7  H    0.000000   0.000000   0.000000  -0.000000   0.000000   0.000000
     8  H   -0.000000  -0.000000   0.000000   0.000000  -0.000000  -0.000000
     9  H    0.000000   0.000000   0.000000  -0.000000   0.000000   0.000000
    10  C   -0.000124  -0.000124   0.000008   0.000000  -0.000000  -0.000000
    11  C    0.000575   0.000570   0.000616   0.000011  -0.000000  -0.000000
    12  C   -0.001081  -0.001077   0.002688   0.000000  -0.000000  -0.000000
    13  C   -0.000009  -0.000009   0.000005   0.000000  -0.000000  -0.000000
    14  C    0.002485   0.002482   0.000011   0.000000  -0.000000  -0.000000
    15  C   -0.000001  -0.000001  -0.000000  -0.000000   0.000000   0.000000
    16  H   -0.000000  -0.000000  -0.000000   0.000000  -0.000000  -0.000000
    17  C   -0.000004  -0.000004   0.000001   0.000000   0.000000   0.000000
    18  H    0.000505   0.000503  -0.000031  -0.000000  -0.000000  -0.000000
    19  H   -0.000000  -0.000000  -0.000000   0.000000  -0.000000  -0.000000
    20  H   -0.000000  -0.000000  -0.000000  -0.000000   0.000000   0.000000
    21  C   -0.000000  -0.000000  -0.000000   0.005392  -0.000124  -0.000124
    22  C   -0.000000  -0.000000  -0.000002  -0.044846   0.000569   0.000576
    23  C   -0.000000  -0.000000  -0.000000  -0.048425  -0.001078  -0.001083
    24  C   -0.000000  -0.000000  -0.000000  -0.000122  -0.000009  -0.000009
    25  C   -0.000000  -0.000000   0.000000  -0.002565   0.002482   0.002485
    26  C    0.000000   0.000000  -0.000000   0.000009  -0.000001  -0.000001
    27  H   -0.000000  -0.000000   0.000000   0.000003  -0.000000  -0.000000
    28  C    0.000000   0.000000  -0.000000  -0.000108  -0.000004  -0.000004
    29  H   -0.000000  -0.000000   0.000000   0.004135   0.000503   0.000505
    30  H   -0.000000  -0.000000  -0.000000  -0.000000  -0.000000  -0.000000
    31  H    0.000000   0.000000   0.000000  -0.000002  -0.000000  -0.000000
    32  N    0.000000   0.000000  -0.000000   0.004577  -0.000065  -0.000066
    33  N    0.000000   0.000000   0.000000   0.300104  -0.040984  -0.040979
    34  N   -0.000066  -0.000066   0.000150   0.000000   0.000000   0.000000
    35  N   -0.040980  -0.040984  -0.032311  -0.000000   0.000000   0.000000
    36  C    0.376995   0.377002   0.376280   0.000000  -0.000000  -0.000000
    37  H    0.524364  -0.040249  -0.024993  -0.000000   0.000000  -0.000000
    38  H   -0.040249   0.524362  -0.025001  -0.000000  -0.000000   0.000000
    39  H   -0.024993  -0.025001   0.468050  -0.000000   0.000000   0.000000
    40  C   -0.000000  -0.000000  -0.000000   5.059844   0.377003   0.376995
    41  H    0.000000  -0.000000   0.000000   0.377003   0.524360  -0.040249
    42  H   -0.000000   0.000000   0.000000   0.376995  -0.040249   0.524363
    43  H    0.000000   0.000000  -0.000019   0.376279  -0.025002  -0.024993
    44  Co   0.000630   0.000632   0.008439  -0.007059   0.000632   0.000629
              43         44
     1  C   -0.000014   0.257958
     2  C   -0.000006  -0.056743
     3  C    0.000000   0.006941
     4  C   -0.000000   0.002246
     5  C    0.000000   0.006941
     6  C    0.000001  -0.056744
     7  H    0.000000  -0.000622
     8  H    0.000000   0.000125
     9  H    0.000000  -0.000622
    10  C   -0.000000   0.006952
    11  C   -0.000002   0.361243
    12  C   -0.000000   0.005812
    13  C   -0.000000  -0.001248
    14  C    0.000000  -0.001296
    15  C   -0.000000   0.000162
    16  H    0.000000   0.000050
    17  C   -0.000000   0.000141
    18  H    0.000000   0.000023
    19  H   -0.000000   0.000012
    20  H    0.000000  -0.000010
    21  C    0.000008   0.006952
    22  C    0.000616   0.361241
    23  C    0.002688   0.005812
    24  C    0.000005  -0.001248
    25  C    0.000011  -0.001296
    26  C   -0.000000   0.000162
    27  H   -0.000000   0.000050
    28  C    0.000001   0.000141
    29  H   -0.000031   0.000023
    30  H   -0.000000   0.000012
    31  H   -0.000000  -0.000010
    32  N    0.000150  -0.071879
    33  N   -0.032313  -0.053277
    34  N   -0.000000  -0.071878
    35  N    0.000000  -0.053277
    36  C   -0.000000  -0.007058
    37  H    0.000000   0.000630
    38  H    0.000000   0.000632
    39  H   -0.000019   0.008439
    40  C    0.376279  -0.007059
    41  H   -0.025002   0.000632
    42  H   -0.024993   0.000629
    43  H    0.468055   0.008439
    44  Co   0.008439  16.492130
          Atomic-Atomic Spin Densities.
               1          2          3          4          5          6
     1  C    0.000000  -0.000000  -0.000000  -0.000000  -0.000000  -0.000000
     2  C   -0.000000  -0.000000   0.000000   0.000000   0.000000  -0.000000
     3  C   -0.000000   0.000000   0.000000  -0.000000  -0.000000   0.000000
     4  C   -0.000000   0.000000  -0.000000   0.000000  -0.000000   0.000000
     5  C   -0.000000   0.000000  -0.000000  -0.000000   0.000000   0.000000
     6  C   -0.000000  -0.000000   0.000000   0.000000   0.000000  -0.000000
     7  H    0.000000  -0.000000  -0.000000  -0.000000   0.000000  -0.000000
     8  H    0.000000  -0.000000   0.000000   0.000000   0.000000  -0.000000
     9  H    0.000000  -0.000000   0.000000  -0.000000  -0.000000  -0.000000
    10  C    0.000000  -0.000000  -0.000000   0.000000   0.000000   0.000000
    11  C   -0.000000   0.000000  -0.000000   0.000000  -0.000000  -0.000000
    12  C   -0.000000  -0.000000   0.000000   0.000000   0.000000   0.000000
    13  C    0.000000   0.000000  -0.000000   0.000000   0.000000   0.000000
    14  C    0.000000   0.000000  -0.000000   0.000000   0.000000   0.000000
    15  C    0.000000   0.000000  -0.000000   0.000000  -0.000000  -0.000000
    16  H   -0.000000  -0.000000   0.000000  -0.000000   0.000000  -0.000000
    17  C   -0.000000  -0.000000   0.000000   0.000000   0.000000   0.000000
    18  H   -0.000000   0.000000   0.000000  -0.000000  -0.000000  -0.000000
    19  H   -0.000000  -0.000000   0.000000  -0.000000   0.000000   0.000000
    20  H    0.000000  -0.000000  -0.000000   0.000000   0.000000   0.000000
    21  C    0.000000   0.000000   0.000000   0.000000  -0.000000  -0.000000
    22  C   -0.000000  -0.000000  -0.000000   0.000000  -0.000000  -0.000000
    23  C   -0.000000   0.000000   0.000000   0.000000  -0.000000  -0.000000
    24  C    0.000000   0.000000   0.000000   0.000000  -0.000000   0.000000
    25  C    0.000000   0.000000   0.000000   0.000000  -0.000000   0.000000
    26  C    0.000000  -0.000000  -0.000000   0.000000  -0.000000   0.000000
    27  H    0.000000  -0.000000   0.000000  -0.000000   0.000000  -0.000000
    28  C   -0.000000   0.000000   0.000000   0.000000   0.000000  -0.000000
    29  H   -0.000000  -0.000000  -0.000000  -0.000000   0.000000   0.000000
    30  H   -0.000000   0.000000   0.000000  -0.000000   0.000000  -0.000000
    31  H    0.000000   0.000000   0.000000   0.000000  -0.000000  -0.000000
    32  N    0.000000   0.000000  -0.000000  -0.000000   0.000000  -0.000000
    33  N    0.000000   0.000000   0.000000   0.000000  -0.000000  -0.000000
    34  N    0.000000  -0.000000   0.000000  -0.000000  -0.000000   0.000000
    35  N    0.000000   0.000000  -0.000000   0.000000   0.000000   0.000000
    36  C    0.000000   0.000000  -0.000000   0.000000  -0.000000  -0.000000
    37  H   -0.000000   0.000000  -0.000000  -0.000000  -0.000000  -0.000000
    38  H    0.000000  -0.000000   0.000000   0.000000   0.000000   0.000000
    39  H   -0.000000  -0.000000  -0.000000  -0.000000  -0.000000   0.000000
    40  C    0.000000  -0.000000  -0.000000   0.000000  -0.000000  -0.000000
    41  H   -0.000000  -0.000000  -0.000000  -0.000000  -0.000000   0.000000
    42  H    0.000000   0.000000   0.000000   0.000000   0.000000  -0.000000
    43  H   -0.000000   0.000000  -0.000000  -0.000000   0.000000  -0.000000
    44  Co  -0.000000   0.000000  -0.000000  -0.000000  -0.000000   0.000000
               7          8          9         10         11         12
     1  C    0.000000   0.000000   0.000000   0.000000  -0.000000  -0.000000
     2  C   -0.000000  -0.000000  -0.000000  -0.000000   0.000000  -0.000000
     3  C   -0.000000   0.000000   0.000000  -0.000000  -0.000000   0.000000
     4  C   -0.000000   0.000000  -0.000000   0.000000   0.000000   0.000000
     5  C    0.000000   0.000000  -0.000000   0.000000  -0.000000   0.000000
     6  C   -0.000000  -0.000000  -0.000000   0.000000  -0.000000   0.000000
     7  H    0.000000  -0.000000   0.000000  -0.000000   0.000000   0.000000
     8  H   -0.000000  -0.000000  -0.000000  -0.000000   0.000000  -0.000000
     9  H    0.000000  -0.000000   0.000000  -0.000000   0.000000  -0.000000
    10  C   -0.000000  -0.000000  -0.000000  -0.000000   0.000000  -0.000000
    11  C    0.000000   0.000000   0.000000   0.000000   0.000000   0.000000
    12  C    0.000000  -0.000000  -0.000000  -0.000000   0.000000  -0.000000
    13  C   -0.000000   0.000000  -0.000000   0.000000   0.000000  -0.000000
    14  C   -0.000000  -0.000000  -0.000000  -0.000000  -0.000000  -0.000000
    15  C    0.000000   0.000000   0.000000  -0.000000  -0.000000   0.000000
    16  H   -0.000000  -0.000000  -0.000000  -0.000000   0.000000  -0.000000
    17  C   -0.000000  -0.000000  -0.000000   0.000000   0.000000  -0.000000
    18  H    0.000000   0.000000   0.000000   0.000000   0.000000   0.000000
    19  H   -0.000000  -0.000000  -0.000000   0.000000   0.000000  -0.000000
    20  H   -0.000000  -0.000000  -0.000000  -0.000000  -0.000000   0.000000
    21  C   -0.000000  -0.000000  -0.000000  -0.000000   0.000000  -0.000000
    22  C    0.000000   0.000000   0.000000   0.000000   0.000000   0.000000
    23  C   -0.000000  -0.000000  -0.000000  -0.000000   0.000000   0.000000
    24  C   -0.000000   0.000000  -0.000000   0.000000  -0.000000  -0.000000
    25  C   -0.000000  -0.000000  -0.000000   0.000000  -0.000000  -0.000000
    26  C    0.000000   0.000000   0.000000   0.000000   0.000000  -0.000000
    27  H    0.000000  -0.000000  -0.000000  -0.000000   0.000000   0.000000
    28  C   -0.000000  -0.000000  -0.000000  -0.000000   0.000000   0.000000
    29  H    0.000000   0.000000   0.000000  -0.000000   0.000000   0.000000
    30  H   -0.000000  -0.000000  -0.000000  -0.000000  -0.000000   0.000000
    31  H   -0.000000  -0.000000  -0.000000   0.000000  -0.000000  -0.000000
    32  N    0.000000  -0.000000   0.000000  -0.000000   0.000000   0.000000
    33  N   -0.000000  -0.000000  -0.000000   0.000000  -0.000000  -0.000000
    34  N    0.000000  -0.000000   0.000000  -0.000000  -0.000000   0.000000
    35  N   -0.000000  -0.000000  -0.000000   0.000000  -0.000000  -0.000000
    36  C   -0.000000   0.000000   0.000000   0.000000  -0.000000   0.000000
    37  H    0.000000   0.000000   0.000000   0.000000   0.000000   0.000000
    38  H   -0.000000  -0.000000  -0.000000  -0.000000  -0.000000  -0.000000
    39  H    0.000000   0.000000   0.000000  -0.000000   0.000000   0.000000
    40  C    0.000000   0.000000  -0.000000   0.000000  -0.000000  -0.000000
    41  H    0.000000   0.000000   0.000000   0.000000   0.000000   0.000000
    42  H   -0.000000  -0.000000  -0.000000  -0.000000  -0.000000  -0.000000
    43  H    0.000000  -0.000000   0.000000  -0.000000   0.000000   0.000000
    44  Co   0.000000   0.000000   0.000000   0.000000   0.000000   0.000000
              13         14         15         16         17         18
     1  C    0.000000   0.000000   0.000000  -0.000000  -0.000000  -0.000000
     2  C    0.000000   0.000000   0.000000  -0.000000  -0.000000   0.000000
     3  C   -0.000000  -0.000000  -0.000000   0.000000   0.000000   0.000000
     4  C    0.000000   0.000000   0.000000  -0.000000   0.000000  -0.000000
     5  C    0.000000   0.000000  -0.000000   0.000000   0.000000  -0.000000
     6  C    0.000000   0.000000  -0.000000  -0.000000   0.000000  -0.000000
     7  H   -0.000000  -0.000000   0.000000  -0.000000  -0.000000   0.000000
     8  H    0.000000  -0.000000   0.000000  -0.000000  -0.000000   0.000000
     9  H   -0.000000  -0.000000   0.000000  -0.000000  -0.000000   0.000000
    10  C    0.000000  -0.000000  -0.000000  -0.000000   0.000000   0.000000
    11  C    0.000000  -0.000000  -0.000000   0.000000   0.000000   0.000000
    12  C   -0.000000  -0.000000   0.000000  -0.000000  -0.000000   0.000000
    13  C    0.000000   0.000000  -0.000000  -0.000000  -0.000000  -0.000000
    14  C    0.000000   0.000000  -0.000000  -0.000000  -0.000000  -0.000000
    15  C   -0.000000  -0.000000   0.000000   0.000000   0.000000  -0.000000
[...]
 
              Baa    -0.0000    -0.000    -0.000    -0.000 -0.2870 -0.6462  0.7071
    40 C(13)  Bbb     0.0000     0.000     0.000     0.000  0.9141 -0.4054  0.0005
              Bcc     0.0000     0.000     0.000     0.000  0.2864  0.6465  0.7071
 
              Baa    -0.0000    -0.000    -0.000    -0.000 -0.6131  0.1404  0.7774
    41 H(1)   Bbb     0.0000     0.000     0.000     0.000 -0.3180  0.8569 -0.4056
              Bcc     0.0000     0.000     0.000     0.000  0.7231  0.4960  0.4808
 
              Baa    -0.0000    -0.000    -0.000    -0.000  0.7228  0.4960 -0.4812
    42 H(1)   Bbb    -0.0000    -0.000    -0.000    -0.000 -0.3188  0.8571  0.4046
              Bcc     0.0000     0.000     0.000     0.000  0.6131 -0.1391  0.7777
 
              Baa    -0.0000    -0.000    -0.000    -0.000 -0.4777 -0.5241  0.7051
    43 H(1)   Bbb     0.0000     0.000     0.000     0.000  0.7360 -0.6770 -0.0047
              Bcc     0.0000     0.000     0.000     0.000  0.4798  0.5167  0.7091
 
              Baa    -0.0003    -0.042    -0.015    -0.014 -0.6927  0.1261  0.7101
    44 Co(59) Bbb    -0.0000    -0.000    -0.000    -0.000  0.1757  0.9844 -0.0034
              Bcc     0.0003     0.042     0.015     0.014  0.6995 -0.1224  0.7041
 

 ---------------------------------------------------------------------------------

   1 Symmetry operations used in ECPInt.
 ECPInt:  NShTT=   11781 NPrTT=   71406 LenC2=    9480 LenP2D=   31901.
 LDataN:  DoStor=T MaxTD1= 7 Len=  274
 Calling FoFJK, ICntrl=      2127 FMM=F ISym2X=0 I1Cent= 0 IOpClX= 1 NMat=1 NMatS=1 NMatT=0.
 -------------------------------------------------------------------
 Center     Atomic                   Forces (Hartrees/Bohr)
 Number     Number              X              Y              Z
 -------------------------------------------------------------------
      1        6          -0.000008717   -0.096742042   -0.000012155
      2        6           0.073072307    0.042885566    0.000007469
      3        6          -0.006564247    0.004112342    0.000000460
      4        6           0.000008544    0.004149103   -0.000002331
      5        6           0.006547330    0.004106121    0.000000586
      6        6          -0.073050388    0.042896279    0.000006761
      7        1          -0.001170021    0.005064949   -0.000001093
      8        1          -0.000000821    0.000783065   -0.000000405
      9        1           0.001175558    0.005068237   -0.000001298
     10        6          -0.013143902   -0.007819822    0.000002681
     11        6           0.002067789    0.005894746   -0.000013152
     12        6           0.013424602    0.006749308    0.000000625
     13        6           0.012436805    0.005156782   -0.000000268
     14        6           0.000518247    0.005208411    0.000000640
     15        6          -0.014107316    0.006610705    0.000001106
     16        1          -0.000883565   -0.000140019   -0.000000521
     17        6          -0.000073280   -0.011631698    0.000000066
     18        1          -0.000299048   -0.000154873   -0.000000198
     19        1          -0.000113098    0.000223625   -0.000000797
     20        1          -0.000457155   -0.000329474   -0.000000109
     21        6           0.013192451   -0.007992141    0.000002123
     22        6          -0.002066928    0.005898050   -0.000016190
     23        6          -0.013288325    0.006840690    0.000000546
     24        6          -0.012436008    0.005316702    0.000000311
     25        6          -0.000601012    0.005094764    0.000000273
     26        6           0.014048836    0.006461148    0.000000317
     27        1           0.000869249   -0.000188032   -0.000000416
     28        6           0.000124312   -0.011479914    0.000000236
     29        1           0.000316967   -0.000114544   -0.000000744
     30        1           0.000103286    0.000247992   -0.000000690
     31        1           0.000434542   -0.000340965   -0.000000253
     32        7          -0.022776522   -0.063227650    0.000002033
     33        7           0.028968386    0.022304083    0.000008460
     34        7           0.022738261   -0.063251092    0.000000325
     35        7          -0.029015778    0.022296637    0.000004875
     36        6          -0.000269892   -0.010601323    0.000001151
     37        1           0.000524785    0.002258395    0.000816320
     38        1           0.000522795    0.002260592   -0.000819976
     39        1           0.000392476    0.001973696    0.000002049
     40        6           0.000283438   -0.010606417    0.000001007
     41        1          -0.000523487    0.002260892   -0.000819186
     42        1          -0.000525991    0.002258736    0.000814985
     43        1          -0.000397081    0.001973427    0.000002410
     44       27           0.000001616    0.058264960    0.000011963
 -------------------------------------------------------------------
 Cartesian Forces:  Max     0.096742042 RMS     0.017717566

 GradGradGradGradGradGradGradGradGradGradGradGradGradGradGradGradGradGrad
 Berny optimization.
 Search for a local minimum.
 Step number   1 out of a maximum of    2
 All quantities printed in internal units (Hartrees-Bohrs-Radians)
 Second derivative matrix not updated -- first step.
 ITU=  0
     Eigenvalues ---    0.00053   0.00055   0.00195   0.00239   0.00242
     Eigenvalues ---    0.00377   0.00438   0.00607   0.00649   0.00661
     Eigenvalues ---    0.00664   0.00814   0.00841   0.01313   0.01547
     Eigenvalues ---    0.01784   0.02017   0.02051   0.02537   0.02547
     Eigenvalues ---    0.03034   0.03099   0.04098   0.04197   0.04384
     Eigenvalues ---    0.04469   0.04665   0.05371   0.05519   0.06088
     Eigenvalues ---    0.06137   0.06888   0.06920   0.07039   0.07053
     Eigenvalues ---    0.07057   0.07245   0.07690   0.07757   0.09575
     Eigenvalues ---    0.09809   0.10077   0.10328   0.11480   0.11872
     Eigenvalues ---    0.11934   0.12064   0.12165   0.12798   0.13316
     Eigenvalues ---    0.13322   0.13400   0.13621   0.14664   0.15322
     Eigenvalues ---    0.15392   0.15848   0.19265   0.19735   0.19952
     Eigenvalues ---    0.20946   0.21861   0.23991   0.24396   0.28450
     Eigenvalues ---    0.29400   0.29404   0.30283   0.30546   0.31478
     Eigenvalues ---    0.31676   0.34603   0.35553   0.36240   0.37079
     Eigenvalues ---    0.37424   0.41027   0.41455   0.44201   0.46522
     Eigenvalues ---    0.48068   0.48228   0.49268   0.50842   0.50904
     Eigenvalues ---    0.53511   0.53590   0.53626   0.60385   0.62635
     Eigenvalues ---    0.68384   0.71169   0.72457   0.73550   0.86393
     Eigenvalues ---    0.89930   0.90629   0.90827   0.92617   0.94082
     Eigenvalues ---    0.94979   0.96688   0.99650   1.03805   1.11988
     Eigenvalues ---    1.15370   1.15520   1.17974   1.20355   1.23598
     Eigenvalues ---    1.30026   1.37552   1.37563   1.45415   1.46594
     Eigenvalues ---    1.49137   1.50300   1.52613   1.59969   1.63487
     Eigenvalues ---    1.64830   1.65938   1.76966   1.78109   1.83397
     Eigenvalues ---    1.86975
 Quadratic step=1.036D+00 exceeds max=3.000D-01 adjusted using Lamda=-7.694D-02.
 Angle between NR and scaled steps=  47.87 degrees.
 Angle between quadratic step and forces=  41.38 degrees.
 Linear search not attempted -- first point.
 B after Tr=     0.000001   -0.000328    0.000000
         Rot=    1.000000   -0.000000   -0.000000   -0.000000 Ang=  -0.00 deg.
 Variable       Old X    -DE/DX   Delta X   Delta X   Delta X     New X
                                 (Linear)    (Quad)   (Total)
    X1        0.00001  -0.00001   0.00000  -0.00001  -0.00001   0.00001
    Y1        1.51094  -0.09674   0.00000  -0.16568  -0.16601   1.34493
    Z1        0.00030  -0.00001   0.00000  -0.00004  -0.00004   0.00027
    X2       -2.43822   0.07307   0.00000   0.09208   0.09208  -2.34614
    Y2        2.55348   0.04289   0.00000  -0.01793  -0.01826   2.53522
    Z2        0.00009   0.00001   0.00000   0.00001   0.00002   0.00010
    X3       -2.35874  -0.00656   0.00000   0.02155   0.02155  -2.33718
    Y3        5.19077   0.00411   0.00000   0.00272   0.00239   5.19316
    Z3       -0.00003   0.00000   0.00000   0.00001   0.00001  -0.00001
    X4       -0.00000   0.00001   0.00000   0.00000   0.00001   0.00000
    Y4        6.40272   0.00415   0.00000   0.02801   0.02768   6.43041
    Z4       -0.00000  -0.00000   0.00000  -0.00001  -0.00001  -0.00001
    X5        2.35875   0.00655   0.00000  -0.02156  -0.02156   2.33719
    Y5        5.19078   0.00411   0.00000   0.00272   0.00239   5.19317
    Z5        0.00004   0.00000   0.00000   0.00001   0.00001   0.00005
    X6        2.43821  -0.07305   0.00000  -0.09207  -0.09207   2.34613
    Y6        2.55347   0.04290   0.00000  -0.01792  -0.01825   2.53522
    Z6        0.00014   0.00001   0.00000   0.00001   0.00001   0.00015
    X7       -4.06836  -0.00117   0.00000   0.00989   0.00989  -4.05847
    Y7        6.31438   0.00506   0.00000   0.00612   0.00579   6.32018
    Z7       -0.00010  -0.00000   0.00000  -0.00000  -0.00000  -0.00010
    X8        0.00000  -0.00000   0.00000  -0.00000  -0.00000   0.00000
    Y8        8.45462   0.00078   0.00000   0.02485   0.02452   8.47914
    Z8       -0.00005  -0.00000   0.00000  -0.00001  -0.00001  -0.00006
    X9        4.06837   0.00118   0.00000  -0.00989  -0.00989   4.05848
    Y9        6.31438   0.00507   0.00000   0.00612   0.00580   6.32018
    Z9        0.00004  -0.00000   0.00000  -0.00001  -0.00000   0.00003
   X10        7.02634  -0.01314   0.00000  -0.03377  -0.03377   6.99257
   Y10        1.10606  -0.00782   0.00000  -0.01395  -0.01428   1.09178
   Z10       -0.00008   0.00000   0.00000   0.00001   0.00001  -0.00007
   X11        3.67161   0.00207   0.00000  -0.03670  -0.03669   3.63492
   Y11       -1.72806   0.00589   0.00000   0.00645   0.00612  -1.72194
   Z11        0.00026  -0.00001   0.00000  -0.00004  -0.00004   0.00022
   X12        7.97026   0.01342   0.00000  -0.01297  -0.01297   7.95729
   Y12       -1.39835   0.00675   0.00000   0.00846   0.00813  -1.39022
   Z12       -0.00017   0.00000   0.00000   0.00001   0.00001  -0.00016
   X13        8.65785   0.01244   0.00000  -0.01895  -0.01895   8.63890
   Y13        3.14576   0.00516   0.00000   0.00007  -0.00025   3.14551
   Z13       -0.00016  -0.00000   0.00000   0.00001   0.00001  -0.00015
   X14       10.55649   0.00052   0.00000  -0.01419  -0.01418  10.54231
   Y14       -1.87632   0.00521   0.00000   0.00300   0.00268  -1.87364
   Z14       -0.00038   0.00000   0.00000   0.00001   0.00001  -0.00037
   X15       11.27397  -0.01411   0.00000  -0.03239  -0.03238  11.24159
   Y15        2.65899   0.00661   0.00000   0.00052   0.00019   2.65918
   Z15       -0.00036   0.00000   0.00000   0.00000   0.00000  -0.00035
   X16        7.97820  -0.00088   0.00000  -0.01476  -0.01476   7.96344
   Y16        5.07668  -0.00014   0.00000   0.00078   0.00045   5.07713
   Z16       -0.00003  -0.00000   0.00000  -0.00000  -0.00000  -0.00003
   X17       12.19486  -0.00007   0.00000  -0.01663  -0.01663  12.17823
   Y17        0.20682  -0.01163   0.00000  -0.00951  -0.00984   0.19698
   Z17       -0.00048   0.00000   0.00000   0.00000   0.00001  -0.00047
   X18       11.28730  -0.00030   0.00000  -0.01201  -0.01201  11.27530
   Y18       -3.79306  -0.00015   0.00000   0.00226   0.00194  -3.79112
   Z18       -0.00042  -0.00000   0.00000   0.00000   0.00000  -0.00042
   X19       12.57851  -0.00011   0.00000  -0.02269  -0.02268  12.55583
   Y19        4.24182   0.00022   0.00000  -0.00246  -0.00279   4.23902
   Z19       -0.00038  -0.00000   0.00000  -0.00001  -0.00001  -0.00039
   X20       14.22280  -0.00046   0.00000  -0.01419  -0.01419  14.20861
   Y20       -0.11520  -0.00033   0.00000  -0.00525  -0.00557  -0.12077
   Z20       -0.00062  -0.00000   0.00000  -0.00000  -0.00000  -0.00062
   X21       -7.02637   0.01319   0.00000   0.03382   0.03382  -6.99255
   Y21        1.10617  -0.00799   0.00000  -0.01406  -0.01438   1.09179
   Z21       -0.00010   0.00000   0.00000   0.00001   0.00001  -0.00008
   X22       -3.67160  -0.00207   0.00000   0.03669   0.03669  -3.63491
   Y22       -1.72806   0.00590   0.00000   0.00645   0.00612  -1.72194
   Z22        0.00021  -0.00002   0.00000  -0.00004  -0.00004   0.00017
   X23       -7.97035  -0.01329   0.00000   0.01307   0.01307  -7.95728
   Y23       -1.39843   0.00684   0.00000   0.00850   0.00818  -1.39026
   Z23       -0.00015   0.00000   0.00000   0.00001   0.00001  -0.00014
   X24       -8.65785  -0.01244   0.00000   0.01895   0.01895  -8.63889
   Y24        3.14563   0.00532   0.00000   0.00015  -0.00017   3.14546
   Z24       -0.00014   0.00000   0.00000   0.00001   0.00001  -0.00013
   X25      -10.55642  -0.00060   0.00000   0.01415   0.01415 -10.54227
   Y25       -1.87626   0.00509   0.00000   0.00295   0.00262  -1.87363
   Z25       -0.00022   0.00000   0.00000   0.00001   0.00001  -0.00021
   X26      -11.27393   0.01405   0.00000   0.03234   0.03234 -11.24159
   Y26        2.65908   0.00646   0.00000   0.00043   0.00011   2.65918
   Z26       -0.00022   0.00000   0.00000   0.00000   0.00000  -0.00022
   X27       -7.97819   0.00087   0.00000   0.01474   0.01474  -7.96345
   Y27        5.07670  -0.00019   0.00000   0.00073   0.00040   5.07710
   Z27       -0.00006  -0.00000   0.00000  -0.00000  -0.00000  -0.00006
   X28      -12.19489   0.00012   0.00000   0.01665   0.01665 -12.17824
   Y28        0.20669  -0.01148   0.00000  -0.00941  -0.00974   0.19695
   Z28       -0.00026   0.00000   0.00000   0.00000   0.00000  -0.00026
   X29      -11.28730   0.00032   0.00000   0.01202   0.01202 -11.27528
   Y29       -3.79311  -0.00011   0.00000   0.00231   0.00198  -3.79112
   Z29       -0.00017  -0.00000   0.00000  -0.00000  -0.00001  -0.00018
   X30      -12.57850   0.00010   0.00000   0.02265   0.02265 -12.55585
   Y30        4.24178   0.00025   0.00000  -0.00246  -0.00278   4.23899
   Z30       -0.00022  -0.00000   0.00000  -0.00001  -0.00001  -0.00022
   X31      -14.22277   0.00043   0.00000   0.01416   0.01416 -14.20861
   Y31       -0.11521  -0.00034   0.00000  -0.00523  -0.00556  -0.12077
   Z31       -0.00029  -0.00000   0.00000  -0.00000  -0.00000  -0.00029
   X32       -4.39440  -0.02278   0.00000   0.02999   0.02999  -4.36441
   Y32        0.88765  -0.06323   0.00000  -0.05918  -0.05950   0.82814
   Z32        0.00010   0.00000   0.00000   0.00000   0.00000   0.00010
   X33       -5.95496   0.02897   0.00000   0.05365   0.05365  -5.90130
   Y33       -3.03244   0.02230   0.00000   0.02929   0.02896  -3.00348
   Z33       -0.00005   0.00001   0.00000   0.00002   0.00001  -0.00004
   X34        4.39444   0.02274   0.00000  -0.03000  -0.03000   4.36443
   Y34        0.88767  -0.06325   0.00000  -0.05918  -0.05951   0.82816
   Z34        0.00018   0.00000   0.00000  -0.00001  -0.00000   0.00017
   X35        5.95501  -0.02902   0.00000  -0.05367  -0.05367   5.90134
   Y35       -3.03243   0.02230   0.00000   0.02928   0.02895  -3.00347
   Z35        0.00000   0.00000   0.00000   0.00000   0.00000   0.00001
   X36        6.12248  -0.00027   0.00000  -0.02011  -0.02011   6.10237
   Y36       -5.72751  -0.01060   0.00000   0.00937   0.00904  -5.71847
   Z36        0.00003   0.00000   0.00000   0.00000  -0.00000   0.00003
   X37        7.10188   0.00052   0.00000  -0.00353  -0.00353   7.09835
   Y37       -6.43495   0.00226   0.00000   0.02521   0.02488  -6.41007
   Z37       -1.68648   0.00082   0.00000   0.00362   0.00362  -1.68286
   X38        7.10079   0.00052   0.00000  -0.00353  -0.00353   7.09726
   Y38       -6.43508   0.00226   0.00000   0.02521   0.02488  -6.41020
   Z38        1.68715  -0.00082   0.00000  -0.00362  -0.00362   1.68352
   X39        4.20804   0.00039   0.00000  -0.01132  -0.01131   4.19673
   Y39       -6.50419   0.00197   0.00000   0.00203   0.00171  -6.50248
   Z39       -0.00066   0.00000   0.00000   0.00001   0.00001  -0.00065
   X40       -6.12247   0.00028   0.00000   0.02012   0.02012  -6.10235
   Y40       -5.72752  -0.01061   0.00000   0.00936   0.00904  -5.71848
   Z40        0.00010   0.00000   0.00000   0.00000   0.00000   0.00010
   X41       -7.10063  -0.00052   0.00000   0.00353   0.00353  -7.09710
   Y41       -6.43502   0.00226   0.00000   0.02521   0.02488  -6.41014
   Z41        1.68732  -0.00082   0.00000  -0.00362  -0.00362   1.68370
   X42       -7.10201  -0.00053   0.00000   0.00353   0.00353  -7.09848
   Y42       -6.43502   0.00226   0.00000   0.02521   0.02489  -6.41013
   Z42       -1.68630   0.00081   0.00000   0.00362   0.00361  -1.68269
   X43       -4.20802  -0.00040   0.00000   0.01131   0.01131  -4.19671
   Y43       -6.50420   0.00197   0.00000   0.00202   0.00169  -6.50250
   Z43       -0.00074   0.00000   0.00000   0.00002   0.00001  -0.00072
   X44        0.00000   0.00000   0.00000   0.00000   0.00000   0.00000
   Y44       -2.37039   0.05826   0.00000   0.10083   0.10050  -2.26990
   Z44        0.00020   0.00001   0.00000  -0.00001  -0.00001   0.00019
         Item               Value     Threshold  Converged?
 Maximum Force            0.096742     0.000450     NO 
 RMS     Force            0.017718     0.000300     NO 
 Maximum Displacement     0.166007     0.001800     NO 
 RMS     Displacement     0.026131     0.001200     NO 
 Predicted change in Energy=-2.639468D-02
 GradGradGradGradGradGradGradGradGradGradGradGradGradGradGradGradGradGrad

 Unable to Open any file for archive entry.
 1\1\GINC-X11P1N5\Force\UPBE1PBE\GenECP\C22H17Co1N4\MAYUMIAO\17-Jul-202
 4\0\\# pbe1pbe em=gd3bj genecp g09default scf=(xqc,maxcycle=64) force 
 guess=read nosymm\\Title Card\\0,1\C,0.00000573,0.79955408,0.0001598\C
 ,-1.29024851,1.35124223,0.00004638\C,-1.24818925,2.74683818,-0.000014\
 C,-0.00000134,3.38817597,-0.0000016\C,1.24819872,2.74684258,0.00002006
 \C,1.290243,1.35123871,0.00007235\H,-2.15288558,3.34142747,-0.00005056
 \H,0.00000264,4.47399309,-0.00002664\H,2.15288629,3.34142698,0.0000187
 5\C,3.71817878,0.5852995,-0.00004066\C,1.94293204,-0.91444859,0.000136
 29\C,4.21767903,-0.73997614,-0.00009248\C,4.58153711,1.66466407,-0.000
 08407\C,5.58625412,-0.99290542,-0.00020009\C,5.96593011,1.4070764,-0.0
 0018812\H,4.22188081,2.6864631,-0.00001548\C,6.45324306,0.10944289,-0.
 00025169\H,5.9729836,-2.00720014,-0.00022094\H,6.6562626,2.24467194,-0
 .00020076\H,7.52637941,-0.0609614,-0.0003255\C,-3.71819401,0.58536141,
 -0.00005087\C,-1.94292778,-0.91445148,0.00011042\C,-4.2177284,-0.74001
 808,-0.0000793\C,-4.5815346,1.66459632,-0.00007566\C,-5.58621592,-0.99
 287195,-0.00011385\C,-5.96590459,1.40712272,-0.00011804\H,-4.22187416,
 2.68647575,-0.00003296\C,-6.45325932,0.1093755,-0.00013722\H,-5.972983
 28,-2.00722681,-0.00009149\H,-6.6562554,2.24465196,-0.00011378\H,-7.52
 636643,-0.06096819,-0.00015107\N,-2.3254165,0.46972153,0.00005179\N,-3
 .15122753,-1.60469899,-0.00002715\N,2.32543555,0.4697337,0.00009442\N,
 3.15125354,-1.60469218,0.00000244\C,3.23987643,-3.0308699,0.00001645\H
 ,3.75815532,-3.40522917,-0.8924471\H,3.75757571,-3.40529762,0.8928\H,2
 .22679948,-3.44186666,-0.00034877\C,-3.23987306,-3.03087197,0.00005167
 \H,-3.7574915,-3.40526827,0.8928934\H,-3.75822192,-3.40526553,-0.89235
 312\H,-2.22678919,-3.44187178,-0.00038945\Co,0.00000034,-1.25435852,0.
 00010766\\Version=ES64L-G16RevC.01\HF=-1212.1113111\S2=0.\S2-1=0.\S2A=
 0.\RMSD=5.861e-09\RMSF=1.772e-02\Dipole=-0.00015,-1.4275363,-0.0001253
 \Quadrupole=14.2476734,6.872618,-21.1202913,-0.0005636,-0.0004593,0.00
 04091\PG=C01 [X(C22H17Co1N4)]\\@
 The archive entry for this job was punched.


 PICNIC:  A SNACK IN THE GRASS.
 Job cpu time:       0 days  0 hours 28 minutes 37.6 seconds.
 Elapsed time:       0 days  0 hours  0 minutes 31.4 seconds.
 File lengths (MBytes):  RWF=    184 Int=      0 D2E=      0 Chk=    162 Scr=      1
 Normal termination of Gaussian 16 at Wed Jul 17 21:34:05 2024.
