 Entering Gaussian System, Link 0=g16
 Input=JOBS/4_A.gjf
 Output=JOBS/4_A.log
 Initial command:
 /data/app/gaussian/C01-avx2//g16/l1.exe "/tmp/Gau-2039709.inp" -scrdir="/tmp/"
 Entering Link 1 = /data/app/gaussian/C01-avx2//g16/l1.exe PID=   2039710.
  
 Copyright (c) 1988-2019, Gaussian, Inc.  All Rights Reserved.
  
 This is part of the Gaussian(R) 16 program.  It is based on
 the Gaussian(R) 09 system (copyright 2009, Gaussian, Inc.),
 the Gaussian(R) 03 system (copyright 2003, Gaussian, Inc.),
 the Gaussian(R) 98 system (copyright 1998, Gaussian, Inc.),
 the Gaussian(R) 94 system (copyright 1995, Gaussian, Inc.),
 the Gaussian 92(TM) system (copyright 1992, Gaussian, Inc.),
 the Gaussian 90(TM) system (copyright 1990, Gaussian, Inc.),
 the Gaussian 88(TM) system (copyright 1988, Gaussian, Inc.),
 the Gaussian 86(TM) system (copyright 1986, Carnegie Mellon
 University), and the Gaussian 82(TM) system (copyright 1983,
 Carnegie Mellon University). Gaussian is a federally registered
 trademark of Gaussian, Inc.
  
 This software contains proprietary and confidential information,
 including trade secrets, belonging to Gaussian, Inc.
  
 This software is provided under written license and may be
 used, copied, transmitted, or stored only in accord with that
 written license.
  
 The following legend is applicable only to US Government
 contracts under FAR:
  
                    RESTRICTED RIGHTS LEGEND
  
 Use, reproduction and disclosure by the US Government is
 subject to restrictions as set forth in subparagraphs (a)
 and (c) of the Commercial Computer Software - Restricted
 Rights clause in FAR 52.227-19.
  
 Gaussian, Inc.
 340 Quinnipiac St., Bldg. 40, Wallingford CT 06492
  
  
 ---------------------------------------------------------------
 Warning -- This program may not be used in any manner that
 competes with the business of Gaussian, Inc. or will provide
 assistance to any competitor of Gaussian, Inc.  The licensee
 of this program is prohibited from giving any competitor of
 Gaussian, Inc. access to this program.  By using this program,
 the user acknowledges that Gaussian, Inc. is engaged in the
 business of creating and licensing software in the field of
 computational chemistry and represents and warrants to the
 licensee that it is not a competitor of Gaussian, Inc. and that
 it will not use this program in any manner prohibited above.
 ---------------------------------------------------------------
  

 Cite this work as:
 Gaussian 16, Revision C.01,
 M. J. Frisch, G. W. Trucks, H. B. Schlegel, G. E. Scuseria, 
 M. A. Robb, J. R. Cheeseman, G. Scalmani, V. Barone, 
 G. A. Petersson, H. Nakatsuji, X. Li, M. Caricato, A. V. Marenich, 
 J. Bloino, B. G. Janesko, R. Gomperts, B. Mennucci, H. P. Hratchian, 
 J. V. Ortiz, A. F. Izmaylov, J. L. Sonnenberg, D. Williams-Young, 
 F. Ding, F. Lipparini, F. Egidi, J. Goings, B. Peng, A. Petrone, 
 T. Henderson, D. Ranasinghe, V. G. Zakrzewski, J. Gao, N. Rega, 
 G. Zheng, W. Liang, M. Hada, M. Ehara, K. Toyota, R. Fukuda, 
 J. Hasegawa, M. Ishida, T. Nakajima, Y. Honda, O. Kitao, H. Nakai, 
 T. Vreven, K. Throssell, J. A. Montgomery, Jr., J. E. Peralta, 
 F. Ogliaro, M. J. Bearpark, J. J. Heyd, E. N. Brothers, K. N. Kudin, 
 V. N. Staroverov, T. A. Keith, R. Kobayashi, J. Normand, 
 K. Raghavachari, A. P. Rendell, J. C. Burant, S. S. Iyengar, 
 J. Tomasi, M. Cossi, J. M. Millam, M. Klene, C. Adamo, R. Cammi, 
 J. W. Ochterski, R. L. Martin, K. Morokuma, O. Farkas, 
 J. B. Foresman, and D. J. Fox, Gaussian, Inc., Wallingford CT, 2019.
 
 ******************************************
 Gaussian 16:  ES64L-G16RevC.01  3-Jul-2019
                17-Jul-2024 
 ******************************************
 %chk=a.chk
 %nprocshared=56
 Will use up to   56 processors via shared memory.
 %mem=96gb
 ----------------------------------------------------------------------
 # pbe1pbe em=gd3bj genecp g09default scf=(xqc,maxcycle=64) force guess
 =read nosymm
 ----------------------------------------------------------------------
 1/10=7,30=1,38=1,158=3,167=1/1,3;
 2/12=2,15=1,17=6,18=5,40=1/2;
 3/5=7,11=2,16=1,17=8,25=1,27=10,30=1,71=1,74=-13,75=-4,116=-2,124=41,158=3/1,2,3;
 4/5=1,60=-1/1;
 5/5=2,7=64,8=3,13=1,38=6,87=10/2,8;
 6/7=2,8=2,9=2,10=2,28=1,87=10/1;
 7/29=1,30=1,87=10/1,2,3,16;
 1/10=7,30=1,158=3,167=1/3;
 99//99;
 Using 2006 physical constants.
 ----------
 Title Card
 ----------
 Symbolic Z-matrix:
 Charge =  0 Multiplicity = 1
 6                     0.        0.59959   0.00006 
 6                    -1.17673   1.36393   0.00005 
 6                    -1.22918   2.75078  0. 
 6                     0.        3.42989   0.00001 
 6                     1.22918   2.75078   0.00005 
 6                     1.17674   1.36393   0.00009 
 1                    -2.15305   3.32776  -0.00005 
 1                     0.        4.50692  -0.00001 
 1                     2.15305   3.32776   0.00005 
 6                     3.64606   0.57059  -0.00002 
 6                     1.88082  -0.88965   0.0001 
 6                     4.16857  -0.73759  -0.00011 
 6                     4.52524   1.6654   -0.00005 
 6                     5.52918  -1.0003   -0.00021 
 6                     5.88658   1.40246  -0.00017 
 1                     4.1585    2.68471   0.00001 
 6                     6.38959   0.0905   -0.00024 
 1                     5.90741  -2.01837  -0.00025 
 1                     6.58792   2.23381  -0.0002 
 1                     7.46198  -0.07142  -0.00032 
 6                    -3.64606   0.57058  -0.00002 
 6                    -1.88082  -0.88965   0.00002 
 6                    -4.16855  -0.7376   -0.00007 
 6                    -4.52523   1.66539  -0.00005 
 6                    -5.52918  -1.00031  -0.00011 
 6                    -5.88659   1.40245  -0.0001 
 1                    -4.1585    2.68471  -0.00002 
 6                    -6.38958   0.09049  -0.00012 
 1                    -5.9074   -2.01838  -0.00011 
 1                    -6.58791   2.2338   -0.00011 
 1                    -7.46198  -0.07143  -0.00015 
 7                    -2.26827   0.41928   0. 
 7                    -3.05665  -1.57935  -0.00004 
 7                     2.26828   0.41927   0.0001 
 7                     3.05665  -1.57934  -0.00006 
 6                     3.17013  -3.02469   0. 
 1                     3.70387  -3.37308  -0.89148 
 1                     3.70345  -3.37308   0.89174 
 1                     2.16358  -3.44007  -0.00024 
 6                    -3.17012  -3.02469   0.00004 
 1                    -3.70338  -3.37308   0.89181 
 1                    -3.70392  -3.3731   -0.8914 
 1                    -2.16357  -3.44007  -0.00026 
 27                    0.00001  -1.12546   0.00015 
 

 GradGradGradGradGradGradGradGradGradGradGradGradGradGradGradGradGradGrad
 Berny optimization.
 Initialization pass.
 Trust Radius=3.00D-01 FncErr=1.00D-07 GrdErr=1.00D-07 EigMax=2.50D+02 EigMin=1.00D-04
 Number of steps in this run=      2 maximum allowed number of steps=      2.
 GradGradGradGradGradGradGradGradGradGradGradGradGradGradGradGradGradGrad

                          Input orientation:                          
 ---------------------------------------------------------------------
 Center     Atomic      Atomic             Coordinates (Angstroms)
 Number     Number       Type             X           Y           Z
 ---------------------------------------------------------------------
      1          6           0        0.000001    0.599589    0.000062
      2          6           0       -1.176735    1.363929    0.000049
      3          6           0       -1.229178    2.750779   -0.000000
      4          6           0        0.000000    3.429887    0.000012
      5          6           0        1.229181    2.750779    0.000051
      6          6           0        1.176737    1.363932    0.000089
      7          1           0       -2.153049    3.327761   -0.000047
      8          1           0        0.000001    4.506921   -0.000010
      9          1           0        2.153052    3.327762    0.000050
     10          6           0        3.646063    0.570586   -0.000016
     11          6           0        1.880820   -0.889651    0.000099
     12          6           0        4.168566   -0.737594   -0.000111
     13          6           0        4.525239    1.665401   -0.000047
     14          6           0        5.529182   -1.000304   -0.000209
     15          6           0        5.886582    1.402462   -0.000169
     16          1           0        4.158505    2.684714    0.000015
     17          6           0        6.389586    0.090498   -0.000239
     18          1           0        5.907406   -2.018372   -0.000252
     19          1           0        6.587917    2.233814   -0.000197
     20          1           0        7.461982   -0.071415   -0.000321
     21          6           0       -3.646063    0.570583   -0.000022
     22          6           0       -1.880815   -0.889651    0.000023
     23          6           0       -4.168553   -0.737598   -0.000068
     24          6           0       -4.525232    1.665394   -0.000047
     25          6           0       -5.529182   -1.000313   -0.000108
     26          6           0       -5.886585    1.402453   -0.000096
     27          1           0       -4.158505    2.684709   -0.000020
     28          6           0       -6.389577    0.090489   -0.000119
     29          1           0       -5.907399   -2.018380   -0.000111
     30          1           0       -6.587915    2.233803   -0.000110
     31          1           0       -7.461979   -0.071427   -0.000149
     32          7           0       -2.268272    0.419278    0.000003
     33          7           0       -3.056651   -1.579350   -0.000040
     34          7           0        2.268276    0.419274    0.000095
     35          7           0        3.056654   -1.579343   -0.000064
     36          6           0        3.170126   -3.024688    0.000001
     37          1           0        3.703866   -3.373084   -0.891476
     38          1           0        3.703451   -3.373081    0.891735
     39          1           0        2.163581   -3.440070   -0.000236
     40          6           0       -3.170116   -3.024690    0.000039
     41          1           0       -3.703379   -3.373075    0.891813
     42          1           0       -3.703916   -3.373101   -0.891398
     43          1           0       -2.163572   -3.440073   -0.000264
     44         27           0        0.000006   -1.125460    0.000148
 ---------------------------------------------------------------------
                    Distance matrix (angstroms):
                    1          2          3          4          5
     1  C    0.000000
     2  C    1.403183   0.000000
     3  C    2.477599   1.387841   0.000000
     4  C    2.830298   2.377580   1.404303   0.000000
     5  C    2.477599   2.777009   2.458359   1.404305   0.000000
     6  C    1.403185   2.353472   2.777008   2.377578   1.387837
     7  H    3.475420   2.193132   1.089241   2.155470   3.431091
     8  H    3.907332   3.356056   2.143576   1.077034   2.143576
     9  H    3.475422   3.865763   3.431092   2.155472   1.089242
    10  C    3.646178   4.887615   5.340527   4.633506   3.254929
    11  C    2.399024   3.798324   4.787987   4.711252   3.698292
    12  C    4.377784   5.743574   6.426849   5.894475   4.561659
    13  C    4.649057   5.709937   5.855882   4.857076   3.470165
    14  C    5.755997   7.110480   7.729558   7.085086   5.706193
    15  C    5.941081   7.063422   7.242376   6.225938   4.848644
    16  H    4.651978   5.496295   5.388088   4.224741   2.930069
    17  C    6.409834   7.672733   8.069861   7.209599   5.805762
    18  H    6.461514   7.850160   8.583452   8.036229   6.680613
    19  H    6.787586   7.813227   7.834170   6.695613   5.383615
    20  H    7.492089   8.757148   9.137890   8.242590   6.841973
    21  C    3.646180   2.593642   3.254933   4.633508   5.340529
    22  C    2.399022   2.361007   3.698292   4.711250   4.787985
    23  C    4.377774   3.656144   4.561655   5.894469   6.426842
    24  C    4.649051   3.362040   3.470162   4.857073   5.855879
    25  C    5.756001   4.953124   5.706200   7.085092   7.729563
    26  C    5.941085   4.710008   4.848652   6.225944   7.242383
    27  H    4.651978   3.261198   2.930071   4.224743   5.388090
    28  C    6.409828   5.366132   5.805761   7.209596   8.069858
    29  H    6.461512   5.815428   6.680615   8.036229   8.583452
    30  H    6.787584   5.480652   5.383616   6.695614   7.834171
    31  H    7.492090   6.447057   6.841977   8.242593   9.137893
    32  N    2.275428   1.443544   2.552570   3.769460   4.203340
    33  N    3.753785   3.492417   4.699965   5.868183   6.092485
    34  N    2.275430   3.572180   4.203344   3.769464   2.552574
    35  N    3.753781   5.156009   6.092480   5.868178   4.699959
    36  C    4.815089   6.176986   7.260158   7.191052   6.092888
    37  H    5.504143   6.859619   7.913997   7.797037   6.664877
    38  H    5.503883   6.859342   7.913765   7.796863   6.664740
    39  H    4.582568   5.851164   7.059563   7.202596   6.260968
    40  C    4.815085   4.820119   6.092888   7.191050   7.260155
    41  H    5.503845   5.442277   6.664727   7.796834   7.913720
    42  H    5.504178   5.442497   6.664895   7.797067   7.914040
    43  H    4.582566   4.904312   6.260969   7.202596   7.059561
    44  Co   1.725050   2.753503   4.066463   4.555347   4.066460
                    6          7          8          9         10
     6  C    0.000000
     7  H    3.865760   0.000000
     8  H    3.356052   2.454800   0.000000
     9  H    2.193130   4.306101   2.454800   0.000000
    10  C    2.593640   6.421193   5.365492   3.135460   0.000000
    11  C    2.361011   5.835980   5.714934   4.226191   2.290934
    12  C    3.656153   7.515978   6.699394   4.537557   1.408667
    13  C    3.362044   6.882076   5.343408   2.896673   1.404126
    14  C    4.953119   8.817530   7.803933   5.489118   2.452312
    15  C    4.710002   8.266949   6.655036   4.200718   2.389967
    16  H    3.261196   6.344227   4.540219   2.106027   2.175347
    17  C    5.366137   9.135452   7.767341   5.331801   2.785211
    18  H    5.815429   9.672233   8.802096   6.532713   3.437495
    19  H    5.480653   8.809154   6.969049   4.567795   3.379472
    20  H    6.447055  10.198197   8.754560   6.303899   3.869548
    21  C    4.887618   3.135462   5.365496   6.421197   7.292126
    22  C    3.798324   4.226189   5.714933   5.835980   5.716527
    23  C    5.743566   4.537555   6.699390   7.515972   7.923356
    24  C    5.709933   2.896673   5.343408   6.882074   8.244311
    25  C    7.110486   5.489125   7.803941   8.817537   9.308751
    26  C    7.063428   4.200727   6.655045   8.266957   9.568876
    27  H    5.496295   2.106031   4.540223   6.344231   8.085839
    28  C    7.672729   5.331801   7.767341   9.135450  10.047117
    29  H    7.850161   6.532715   8.802098   9.672234   9.898050
    30  H    7.813226   4.567798   6.969053   8.809157  10.368250
    31  H    8.757150   6.303905   8.754566  10.198201  11.126580
    32  N    3.572179   2.910765   4.674815   5.292201   5.916270
    33  N    5.156015   4.989613   6.810714   7.156868   7.039077
    34  N    1.443549   5.292203   4.674818   2.910770   1.386071
    35  N    3.492414   7.156862   6.810708   4.989608   2.229260
    36  C    4.820123   8.287931   8.171587   6.433356   3.626639
    37  H    5.442480   8.944240   8.752589   6.935502   4.043584
    38  H    5.442298   8.944000   8.752438   6.935426   4.043639
    39  H    4.904315   8.027256   8.236246   6.767841   4.275876
    40  C    6.176985   6.433356   8.171586   8.287929   7.706251
    41  H    6.859297   6.935427   8.752412   8.943951   8.388214
    42  H    6.859666   6.935507   8.752618   8.944290   8.388648
    43  H    5.851165   6.767842   8.236247   8.027256   7.059549
    44  Co   2.753502   4.946396   5.632382   4.946392   4.021232
                   11         12         13         14         15
    11  C    0.000000
    12  C    2.292794   0.000000
    13  C    3.677124   2.429321   0.000000
    14  C    3.650040   1.385747   2.848488   0.000000
    15  C    4.615183   2.744343   1.386504   2.429201   0.000000
    16  H    4.238389   3.422323   1.083279   3.931681   2.151842
    17  C    4.614073   2.370373   2.440514   1.389296   1.405084
    18  H    4.181795   2.159620   3.934536   1.086056   3.420897
    19  H    5.649142   3.831778   2.139564   3.403004   1.087666
    20  H    5.640823   3.360116   3.411890   2.144422   2.157359
    21  C    5.716530   7.923368   8.244319   9.308749   9.568874
    22  C    3.761635   6.051292   6.896798   7.410824   8.098534
    23  C    6.051283   8.337119   9.019779   9.701293  10.280350
    24  C    6.896793   9.019782   9.050470  10.401788  10.415133
    25  C    7.410828   9.701306  10.401798  11.058364  11.665890
    26  C    8.098538  10.280363  10.415144  11.665890  11.773168
    27  H    7.017798   9.002903   8.743362  10.364874  10.126595
    28  C    8.328273  10.590567  11.027853  11.968569  12.346066
    29  H    7.869586  10.157041  11.063913  11.481807  12.280072
    30  H    9.026374  11.159350  11.127680  12.541272  12.502168
    31  H    9.378560  11.649608  12.112388  13.024327  13.429685
    32  N    4.350662   6.539972   6.906852   7.925623   8.213909
    33  N    4.985409   7.274085   8.247027   8.605338   9.427228
    34  N    1.365067   2.224736   2.578122   3.556503   3.749507
    35  N    1.363180   1.394593   3.561616   2.539426   4.110919
    36  C    2.494132   2.495532   4.881932   3.108581   5.194111
    37  H    3.207155   2.820689   5.182242   3.123495   5.325835
    38  H    3.206933   2.820906   5.182365   3.123929   5.326102
    39  H    2.566046   3.365017   5.625235   4.156890   6.108261
    40  C    5.483643   7.686811   9.011961   8.931738  10.080846
    41  H    6.176231   8.349180   9.689779   9.574233  10.750291
    42  H    6.176695   8.349626   9.690201   9.574680  10.750718
    43  H    4.781396   6.884719   8.414633   8.070374   9.394419
    44  Co   1.895538   4.186565   5.316637   5.530592   6.406416
                   16         17         18         19         20
    16  H    0.000000
    17  C    3.421649   0.000000
    18  H    5.017736   2.163292   0.000000
    19  H    2.470901   2.152472   4.306296   0.000000
    20  H    4.302233   1.084550   2.491454   2.465375   0.000000
    21  C    8.085841  10.047126   9.898054  10.368254  11.126582
    22  C    7.017797   8.328279   7.869588   9.026376   9.378559
    23  C    9.002894  10.590563  10.157033  11.159342  11.649598
    24  C    8.743357  11.027853  11.063909  11.127676  12.112382
    25  C   10.364878  11.968580  11.481812  12.541278  13.024330
    26  C   10.126600  12.346077  12.280077  12.502174  13.429688
    27  H    8.317009  10.862419  11.110425  10.755876  11.942861
    28  C   10.862413  12.779163  12.476501  13.153295  13.852505
    29  H   11.110424  12.476507  11.814806  13.199018  13.510404
    30  H   10.755875  13.153299  13.199017  13.175831  14.237753
    31  H   11.942862  13.852511  13.510406  14.237756  14.923961
    32  N    6.814371   8.664098   8.531345   9.040167   9.742618
    33  N    8.380973   9.592695   8.974802  10.371013  10.626171
    34  N    2.950455   4.134404   4.380113   4.685281   5.216834
    35  N    4.404119   3.727843   2.884361   5.197114   4.656260
    36  C    5.794322   4.479878   2.916397   6.271614   5.209783
    37  H    6.139900   4.472561   2.735894   6.367844   5.081201
    38  H    6.139960   4.472954   2.736475   6.368120   5.081664
    39  H    6.441483   5.506726   4.004679   7.194978   6.278605
    40  C    9.290101  10.054467   9.133131  11.084722  11.034642
    41  H    9.965005  10.707943   9.746702  11.753453  11.677420
    42  H    9.965410  10.708383   9.747151  11.753874  11.677860
    43  H    8.802367   9.253185   8.195237  10.429839  10.197996
    44  Co   5.640083   6.504251   5.974501   7.394950   7.536052
                   21         22         23         24         25
    21  C    0.000000
    22  C    2.290935   0.000000
    23  C    1.408663   2.292785   0.000000
    24  C    1.404119   3.677118   2.429319   0.000000
    25  C    2.452315   3.650044   1.385760   2.848493   0.000000
    26  C    2.389968   4.615185   2.744349   1.386514   2.429201
    27  H    2.175345   4.238386   3.422322   1.083278   3.931684
    28  C    2.785203   4.614066   2.370375   2.440514   1.389290
    29  H    3.437494   4.181795   2.159627   3.934537   1.086052
    30  H    3.379466   5.649137   3.831780   2.139568   3.403002
    31  H    3.869546   5.640822   3.360125   3.411896   2.144419
    32  N    1.386074   1.365070   2.224731   2.578115   3.556511
    33  N    2.229264   1.363185   1.394586   3.561614   2.539428
    34  N    5.916274   4.350660   6.539963   6.906849   7.925627
    35  N    7.039076   4.985406   7.274073   8.247018   8.605338
    36  C    7.706258   5.483648   7.686806   9.011959   8.931744
    37  H    8.388603   6.176640   8.349573   9.690148   9.574641
    38  H    8.388269   6.176293   8.349222   9.689826   9.574284
    39  H    7.059554   4.781400   6.884713   8.414629   8.070379
    40  C    3.626639   2.494131   2.495529   4.881929   3.108584
    41  H    4.043648   3.206934   2.820918   5.182377   3.123953
    42  H    4.043580   3.207156   2.820679   5.182230   3.123479
    43  H    4.275879   2.566048   3.365014   5.625232   4.156893
    44  Co   4.021242   1.895547   4.186564   5.316639   5.530604
                   26         27         28         29         30
    26  C    0.000000
    27  H    2.151847   0.000000
    28  C    1.405080   3.421646   0.000000
    29  H    3.420896   5.017736   2.163289   0.000000
    30  H    1.087661   2.470900   2.152472   4.306293   0.000000
    31  H    2.157356   4.302235   1.084557   2.491454   2.465375
    32  N    3.749510   2.950451   4.134399   4.380117   4.685277
    33  N    4.110921   4.404121   3.727835   2.884356   5.197111
    34  N    8.213915   6.814375   8.664093   8.531343   9.040167
    35  N    9.427228   8.380970   9.592685   8.974798  10.371007
    36  C   10.080853   9.290105  10.054464   9.133134  11.084723
    37  H   10.750677   9.965361  10.708335   9.747111  11.753828
    38  H   10.750343   9.965058  10.707984   9.746745  11.753499
    39  H    9.394424   8.802369   9.253181   8.195238  10.429838
    40  C    5.194112   5.794321   4.479874   2.916399   6.271611
    41  H    5.326120   6.139972   4.472972   2.736500   6.368136
    42  H    5.325822   6.139892   4.472539   2.735873   6.367827
    43  H    6.108263   6.441484   5.506722   4.004680   7.194976
    44  Co   6.406427   5.640089   6.504253   5.974508   7.394955
                   31         32         33         34         35
    31  H    0.000000
    32  N    5.216837   0.000000
    33  N    4.656259   2.148501   0.000000
    34  N    9.742620   4.536547   5.687648   0.000000
    35  N   10.626168   5.687646   6.113305   2.148491   0.000000
    36  C   11.034646   6.437164   6.392320   3.560086   1.449792
    37  H   11.677821   7.130440   7.051009   4.151843   2.104995
    38  H   11.677465   7.130122   7.050653   4.151711   2.105028
    39  H   10.197998   5.876724   5.541940   3.860764   2.063949
    40  C    5.209784   3.560090   1.449787   6.437157   6.392315
    41  H    5.081688   4.151722   2.105020   7.130059   7.050600
    42  H    5.081183   4.151844   2.104997   7.130494   7.051053
    43  H    6.278606   3.860770   2.063948   5.876719   5.541937
    44  Co   7.536061   2.744322   3.090173   2.744312   3.090162
                   36         37         38         39         40
    36  C    0.000000
    37  H    1.095896   0.000000
    38  H    1.095903   1.783211   0.000000
    39  H    1.088888   1.780807   1.780814   0.000000
    40  C    6.340242   6.940303   6.939915   5.349847   0.000000
    41  H    6.939869   7.618885   7.406830   5.934767   1.095903
    42  H    6.940349   7.407782   7.618966   5.935164   1.095898
    43  H    5.349848   5.935113   5.934821   4.327153   1.088887
    44  Co   3.695501   4.423277   4.422920   3.168355   3.695504
                   41         42         43         44
    41  H    0.000000
    42  H    1.783211   0.000000
    43  H    1.780814   1.780805   0.000000
    44  Co   4.422884   4.423323   3.168359   0.000000
 Symmetry turned off by external request.
 Stoichiometry    C22H17CoN4
 Framework group  C1[X(C22H17CoN4)]
 Deg. of freedom   126
 Full point group                 C1      NOp   1
 Rotational constants (GHZ):           0.4736003           0.1019668           0.0839918
 General basis read from cards:  (5D, 7F)
 ======================================================================================================
                                       Pseudopotential Parameters
 ======================================================================================================
  Center     Atomic      Valence      Angular      Power
  Number     Number     Electrons     Momentum     of R      Exponent        Coefficient   SO-Coeffient
 ======================================================================================================
    1          6
                                   No pseudopotential on this center.
    2          6
                                   No pseudopotential on this center.
    3          6
                                   No pseudopotential on this center.
    4          6
                                   No pseudopotential on this center.
    5          6
                                   No pseudopotential on this center.
    6          6
                                   No pseudopotential on this center.
    7          1
                                   No pseudopotential on this center.
    8          1
                                   No pseudopotential on this center.
    9          1
                                   No pseudopotential on this center.
   10          6
                                   No pseudopotential on this center.
   11          6
                                   No pseudopotential on this center.
   12          6
                                   No pseudopotential on this center.
   13          6
                                   No pseudopotential on this center.
   14          6
                                   No pseudopotential on this center.
   15          6
                                   No pseudopotential on this center.
   16          1
                                   No pseudopotential on this center.
   17          6
                                   No pseudopotential on this center.
   18          1
                                   No pseudopotential on this center.
   19          1
                                   No pseudopotential on this center.
   20          1
                                   No pseudopotential on this center.
   21          6
                                   No pseudopotential on this center.
   22          6
                                   No pseudopotential on this center.
   23          6
                                   No pseudopotential on this center.
   24          6
                                   No pseudopotential on this center.
   25          6
                                   No pseudopotential on this center.
   26          6
                                   No pseudopotential on this center.
   27          1
                                   No pseudopotential on this center.
   28          6
                                   No pseudopotential on this center.
   29          1
                                   No pseudopotential on this center.
   30          1
                                   No pseudopotential on this center.
   31          1
                                   No pseudopotential on this center.
   32          7
                                   No pseudopotential on this center.
   33          7
                                   No pseudopotential on this center.
   34          7
                                   No pseudopotential on this center.
   35          7
                                   No pseudopotential on this center.
   36          6
                                   No pseudopotential on this center.
   37          1
                                   No pseudopotential on this center.
   38          1
                                   No pseudopotential on this center.
   39          1
                                   No pseudopotential on this center.
   40          6
                                   No pseudopotential on this center.
   41          1
                                   No pseudopotential on this center.
   42          1
                                   No pseudopotential on this center.
   43          1
                                   No pseudopotential on this center.
   44         27           17
                                      F and up 
                                                     2        1.0000000        0.00000000    0.00000000
                                      S - F
                                                     2       23.6600000      283.96056600    0.00000000
                                                     2       10.6100000       47.15684600    0.00000000
                                      P - F
                                                     2       25.0400000      182.21223600    0.00000000
                                                     2       10.4400000       35.23335200    0.00000000
                                      D - F
                                                     2       29.5400000      -26.47533300    0.00000000
                                                     2       10.1800000       -1.82578700    0.00000000
 ======================================================================================================
   441 basis functions,   871 primitive gaussians,   473 cartesian basis functions
    97 alpha electrons       97 beta electrons
       nuclear repulsion energy      2506.1264039126 Hartrees.
 NAtoms=   44 NActive=   44 NUniq=   44 SFac= 1.00D+00 NAtFMM=   60 NAOKFM=F Big=F
 Integral buffers will be    131072 words long.
 Raffenetti 2 integral format.
 Two-electron integral symmetry is turned off.
 Nuclear repulsion after empirical dispersion term =     2506.0672605541 Hartrees.
 One-electron integrals computed using PRISM.
   1 Symmetry operations used in ECPInt.
 ECPInt:  NShTT=   11781 NPrTT=   71406 LenC2=    9568 LenP2D=   32169.
 LDataN:  DoStor=T MaxTD1= 6 Len=  172
 NBasis=   441 RedAO= T EigKep=  3.65D-04  NBF=   441
 NBsUse=   441 1.00D-06 EigRej= -1.00D+00 NBFU=   441
 Initial guess from the checkpoint file:  "a.chk"
 B after Tr=     0.000000    0.001170    0.000000
         Rot=    1.000000   -0.000000    0.000000   -0.000000 Ang=   0.00 deg.
 Initial guess <Sx>= 0.0000 <Sy>= 0.0000 <Sz>= 0.0000 <S**2>=-0.0000 S=-0.0000
 Requested convergence on RMS density matrix=1.00D-08 within  64 cycles.
 Requested convergence on MAX density matrix=1.00D-06.
 Requested convergence on             energy=1.00D-06.
 No special actions if energy rises.
 SCF Done:  E(UPBE1PBE) =  -1212.14700949     A.U. after   14 cycles
            NFock= 14  Conv=0.69D-08     -V/T= 2.0550
 <Sx>= 0.0000 <Sy>= 0.0000 <Sz>= 0.0000 <S**2>=-0.0000 S=-0.0000
 <L.S>=  0.00000000000    
 Annihilation of the first spin contaminant:
 S**2 before annihilation    -0.0000,   after    -0.0000
 QCSCF skips out because SCF is already converged.

 **********************************************************************

            Population analysis using the SCF Density.

 **********************************************************************

 Alpha  occ. eigenvalues --  -14.45289 -14.45289 -14.44478 -14.44476 -10.27283
 Alpha  occ. eigenvalues --  -10.27282 -10.27110 -10.27109 -10.27082 -10.27082
 Alpha  occ. eigenvalues --  -10.26999 -10.26998 -10.24761 -10.24761 -10.24112
 Alpha  occ. eigenvalues --  -10.24111 -10.23957 -10.23957 -10.23433 -10.23433
 Alpha  occ. eigenvalues --  -10.23366 -10.23366 -10.21656 -10.21653 -10.21097
 Alpha  occ. eigenvalues --  -10.18306  -3.83521  -2.35829  -2.34892  -2.31477
 Alpha  occ. eigenvalues --   -1.06172  -1.06091  -0.95587  -0.95138  -0.88059
 Alpha  occ. eigenvalues --   -0.87852  -0.85103  -0.79306  -0.78421  -0.77819
 Alpha  occ. eigenvalues --   -0.77739  -0.75779  -0.75037  -0.72461  -0.72421
 Alpha  occ. eigenvalues --   -0.66215  -0.64885  -0.64285  -0.63171  -0.62798
 Alpha  occ. eigenvalues --   -0.61059  -0.58677  -0.57623  -0.55872  -0.53911
 Alpha  occ. eigenvalues --   -0.53081  -0.51533  -0.49396  -0.49331  -0.49176
 Alpha  occ. eigenvalues --   -0.47622  -0.47614  -0.46618  -0.46571  -0.45898
 Alpha  occ. eigenvalues --   -0.45705  -0.44848  -0.44320  -0.44179  -0.43696
 Alpha  occ. eigenvalues --   -0.41976  -0.41756  -0.41215  -0.38705  -0.38648
 Alpha  occ. eigenvalues --   -0.38245  -0.37759  -0.37210  -0.36544  -0.36194
 Alpha  occ. eigenvalues --   -0.35847  -0.34581  -0.33928  -0.33168  -0.31331
 Alpha  occ. eigenvalues --   -0.28735  -0.28380  -0.26325  -0.26295  -0.24942
 Alpha  occ. eigenvalues --   -0.24571  -0.22055  -0.21705  -0.20729  -0.15861
 Alpha  occ. eigenvalues --   -0.15828  -0.15233
 Alpha virt. eigenvalues --   -0.03815  -0.02034  -0.00300   0.00437   0.01102
 Alpha virt. eigenvalues --    0.01535   0.02042   0.03753   0.05459   0.06023
 Alpha virt. eigenvalues --    0.06941   0.07863   0.09164   0.09563   0.10116
 Alpha virt. eigenvalues --    0.10929   0.12652   0.12931   0.14261   0.14358
 Alpha virt. eigenvalues --    0.15225   0.15634   0.16020   0.16151   0.16689
 Alpha virt. eigenvalues --    0.16914   0.17660   0.17767   0.18043   0.18579
 Alpha virt. eigenvalues --    0.19118   0.19889   0.19948   0.20649   0.21175
 Alpha virt. eigenvalues --    0.22487   0.23394   0.23452   0.24192   0.24312
 Alpha virt. eigenvalues --    0.25100   0.25997   0.26090   0.27241   0.27701
 Alpha virt. eigenvalues --    0.28190   0.28933   0.29661   0.30703   0.31605
 Alpha virt. eigenvalues --    0.31987   0.32873   0.34536   0.34740   0.35116
 Alpha virt. eigenvalues --    0.36727   0.38415   0.38451   0.39449   0.40374
 Alpha virt. eigenvalues --    0.41580   0.42962   0.45453   0.46091   0.47052
 Alpha virt. eigenvalues --    0.47486   0.49777   0.50949   0.51606   0.52178
 Alpha virt. eigenvalues --    0.53780   0.53841   0.53978   0.56187   0.56255
 Alpha virt. eigenvalues --    0.56567   0.57253   0.57746   0.58038   0.58104
 Alpha virt. eigenvalues --    0.58682   0.59096   0.59967   0.60264   0.60902
 Alpha virt. eigenvalues --    0.61668   0.61720   0.61802   0.62792   0.62822
 Alpha virt. eigenvalues --    0.62867   0.63458   0.63675   0.63991   0.64274
 Alpha virt. eigenvalues --    0.65139   0.65249   0.66811   0.66841   0.67244
 Alpha virt. eigenvalues --    0.67737   0.67842   0.68735   0.69136   0.70999
 Alpha virt. eigenvalues --    0.72037   0.72287   0.74721   0.76168   0.76724
 Alpha virt. eigenvalues --    0.77255   0.78450   0.79495   0.80645   0.81102
 Alpha virt. eigenvalues --    0.81535   0.82376   0.83064   0.84090   0.84109
 Alpha virt. eigenvalues --    0.84241   0.85550   0.85928   0.86058   0.86859
 Alpha virt. eigenvalues --    0.86980   0.87597   0.87644   0.89614   0.91368
 Alpha virt. eigenvalues --    0.91518   0.91803   0.91811   0.92350   0.93320
 Alpha virt. eigenvalues --    0.93757   0.94217   0.94683   0.96186   0.96916
 Alpha virt. eigenvalues --    0.96948   0.97527   0.97527   0.98385   0.98500
 Alpha virt. eigenvalues --    0.98856   0.99954   1.00246   1.01953   1.02446
 Alpha virt. eigenvalues --    1.03789   1.04030   1.05628   1.06220   1.07746
 Alpha virt. eigenvalues --    1.09278   1.10578   1.11155   1.11222   1.14317
 Alpha virt. eigenvalues --    1.14882   1.15551   1.16057   1.16989   1.18191
 Alpha virt. eigenvalues --    1.18486   1.18834   1.22679   1.23586   1.23855
 Alpha virt. eigenvalues --    1.25144   1.25308   1.27157   1.27657   1.29642
 Alpha virt. eigenvalues --    1.30173   1.30927   1.32207   1.32577   1.33269
 Alpha virt. eigenvalues --    1.33725   1.36338   1.37522   1.37980   1.38557
 Alpha virt. eigenvalues --    1.39515   1.40816   1.41509   1.42636   1.43740
 Alpha virt. eigenvalues --    1.45191   1.45448   1.45645   1.47164   1.47197
 Alpha virt. eigenvalues --    1.47967   1.49210   1.50008   1.50045   1.50080
 Alpha virt. eigenvalues --    1.50572   1.51447   1.54237   1.56991   1.58178
 Alpha virt. eigenvalues --    1.58855   1.60475   1.61968   1.65809   1.66116
 Alpha virt. eigenvalues --    1.67730   1.68515   1.72613   1.73929   1.74633
 Alpha virt. eigenvalues --    1.78515   1.79843   1.80440   1.80614   1.81210
 Alpha virt. eigenvalues --    1.83586   1.83982   1.86094   1.86234   1.86874
 Alpha virt. eigenvalues --    1.88165   1.88865   1.90081   1.90508   1.91313
 Alpha virt. eigenvalues --    1.93133   1.94135   1.96284   1.96325   1.96679
 Alpha virt. eigenvalues --    1.97878   1.97906   1.98816   1.99077   1.99527
 Alpha virt. eigenvalues --    1.99804   2.00059   2.00880   2.01794   2.04287
 Alpha virt. eigenvalues --    2.04952   2.09694   2.10788   2.11705   2.13298
 Alpha virt. eigenvalues --    2.14751   2.14878   2.15446   2.15883   2.16865
 Alpha virt. eigenvalues --    2.17395   2.18628   2.18920   2.20198   2.20385
 Alpha virt. eigenvalues --    2.21349   2.22030   2.22494   2.24634   2.24779
 Alpha virt. eigenvalues --    2.25240   2.25353   2.26057   2.27926   2.28022
 Alpha virt. eigenvalues --    2.28525   2.29111   2.29347   2.29646   2.30856
 Alpha virt. eigenvalues --    2.32171   2.36793   2.38816   2.39809   2.40342
 Alpha virt. eigenvalues --    2.41690   2.42820   2.44416   2.46374   2.46758
 Alpha virt. eigenvalues --    2.49745   2.52740   2.53626   2.56125   2.56880
 Alpha virt. eigenvalues --    2.56970   2.58292   2.58943   2.61771   2.63154
 Alpha virt. eigenvalues --    2.64409   2.66801   2.67261   2.67615   2.68681
 Alpha virt. eigenvalues --    2.71844   2.71858   2.72312   2.72762   2.74602
 Alpha virt. eigenvalues --    2.75085   2.75150   2.77817   2.78073   2.79027
 Alpha virt. eigenvalues --    2.84798   2.85675   2.87590   2.88564   2.91936
 Alpha virt. eigenvalues --    2.95201   2.95363   2.97505   2.98752   3.05321
 Alpha virt. eigenvalues --    3.05516   3.12171   3.12630   3.17781   3.20684
 Alpha virt. eigenvalues --    3.21607   3.24318   3.40034   3.43125   3.44345
 Alpha virt. eigenvalues --    3.48197   3.51518   3.68675   5.66466   5.67574
 Alpha virt. eigenvalues --    5.68398   5.68999   5.69084   5.72959   5.73762
 Alpha virt. eigenvalues --   45.81742  46.06553  46.13618  63.11151
  Beta  occ. eigenvalues --  -14.45289 -14.45289 -14.44478 -14.44476 -10.27283
  Beta  occ. eigenvalues --  -10.27282 -10.27110 -10.27109 -10.27082 -10.27082
  Beta  occ. eigenvalues --  -10.26999 -10.26998 -10.24761 -10.24761 -10.24112
  Beta  occ. eigenvalues --  -10.24111 -10.23957 -10.23957 -10.23433 -10.23433
  Beta  occ. eigenvalues --  -10.23366 -10.23366 -10.21656 -10.21653 -10.21097
  Beta  occ. eigenvalues --  -10.18306  -3.83521  -2.35829  -2.34892  -2.31477
  Beta  occ. eigenvalues --   -1.06172  -1.06091  -0.95587  -0.95138  -0.88059
  Beta  occ. eigenvalues --   -0.87852  -0.85103  -0.79306  -0.78421  -0.77819
  Beta  occ. eigenvalues --   -0.77739  -0.75779  -0.75037  -0.72461  -0.72421
  Beta  occ. eigenvalues --   -0.66215  -0.64885  -0.64285  -0.63171  -0.62798
  Beta  occ. eigenvalues --   -0.61059  -0.58677  -0.57623  -0.55872  -0.53911
  Beta  occ. eigenvalues --   -0.53081  -0.51533  -0.49396  -0.49331  -0.49176
  Beta  occ. eigenvalues --   -0.47622  -0.47614  -0.46618  -0.46571  -0.45898
  Beta  occ. eigenvalues --   -0.45705  -0.44848  -0.44320  -0.44179  -0.43696
  Beta  occ. eigenvalues --   -0.41976  -0.41756  -0.41215  -0.38705  -0.38648
  Beta  occ. eigenvalues --   -0.38245  -0.37759  -0.37210  -0.36544  -0.36194
  Beta  occ. eigenvalues --   -0.35847  -0.34581  -0.33928  -0.33168  -0.31331
  Beta  occ. eigenvalues --   -0.28735  -0.28380  -0.26325  -0.26295  -0.24942
  Beta  occ. eigenvalues --   -0.24571  -0.22055  -0.21705  -0.20729  -0.15861
  Beta  occ. eigenvalues --   -0.15828  -0.15233
  Beta virt. eigenvalues --   -0.03815  -0.02034  -0.00300   0.00437   0.01102
  Beta virt. eigenvalues --    0.01535   0.02042   0.03753   0.05459   0.06023
  Beta virt. eigenvalues --    0.06941   0.07863   0.09164   0.09563   0.10116
  Beta virt. eigenvalues --    0.10929   0.12652   0.12931   0.14261   0.14358
  Beta virt. eigenvalues --    0.15225   0.15634   0.16020   0.16151   0.16689
  Beta virt. eigenvalues --    0.16914   0.17660   0.17767   0.18043   0.18579
  Beta virt. eigenvalues --    0.19118   0.19889   0.19948   0.20649   0.21175
  Beta virt. eigenvalues --    0.22487   0.23394   0.23452   0.24192   0.24312
  Beta virt. eigenvalues --    0.25100   0.25997   0.26090   0.27241   0.27701
  Beta virt. eigenvalues --    0.28190   0.28933   0.29661   0.30703   0.31605
  Beta virt. eigenvalues --    0.31987   0.32873   0.34536   0.34740   0.35116
  Beta virt. eigenvalues --    0.36727   0.38415   0.38451   0.39449   0.40374
  Beta virt. eigenvalues --    0.41580   0.42962   0.45453   0.46091   0.47052
  Beta virt. eigenvalues --    0.47486   0.49777   0.50949   0.51606   0.52178
  Beta virt. eigenvalues --    0.53780   0.53841   0.53978   0.56187   0.56255
  Beta virt. eigenvalues --    0.56567   0.57253   0.57746   0.58038   0.58104
  Beta virt. eigenvalues --    0.58682   0.59096   0.59967   0.60264   0.60902
  Beta virt. eigenvalues --    0.61668   0.61720   0.61802   0.62792   0.62822
  Beta virt. eigenvalues --    0.62867   0.63458   0.63675   0.63991   0.64274
  Beta virt. eigenvalues --    0.65139   0.65249   0.66811   0.66841   0.67244
  Beta virt. eigenvalues --    0.67737   0.67842   0.68735   0.69136   0.70999
  Beta virt. eigenvalues --    0.72037   0.72287   0.74721   0.76168   0.76724
  Beta virt. eigenvalues --    0.77255   0.78450   0.79495   0.80645   0.81102
  Beta virt. eigenvalues --    0.81535   0.82376   0.83064   0.84090   0.84109
  Beta virt. eigenvalues --    0.84241   0.85550   0.85928   0.86058   0.86859
  Beta virt. eigenvalues --    0.86980   0.87597   0.87644   0.89614   0.91368
  Beta virt. eigenvalues --    0.91518   0.91803   0.91811   0.92350   0.93320
  Beta virt. eigenvalues --    0.93757   0.94217   0.94683   0.96186   0.96916
  Beta virt. eigenvalues --    0.96948   0.97527   0.97527   0.98385   0.98500
  Beta virt. eigenvalues --    0.98856   0.99954   1.00246   1.01953   1.02446
  Beta virt. eigenvalues --    1.03789   1.04030   1.05628   1.06220   1.07746
  Beta virt. eigenvalues --    1.09278   1.10578   1.11155   1.11222   1.14317
  Beta virt. eigenvalues --    1.14882   1.15551   1.16057   1.16989   1.18191
  Beta virt. eigenvalues --    1.18486   1.18834   1.22679   1.23586   1.23855
  Beta virt. eigenvalues --    1.25144   1.25308   1.27157   1.27657   1.29642
  Beta virt. eigenvalues --    1.30173   1.30927   1.32207   1.32577   1.33269
  Beta virt. eigenvalues --    1.33725   1.36338   1.37522   1.37980   1.38557
  Beta virt. eigenvalues --    1.39515   1.40816   1.41509   1.42636   1.43740
  Beta virt. eigenvalues --    1.45191   1.45448   1.45645   1.47164   1.47197
  Beta virt. eigenvalues --    1.47967   1.49210   1.50008   1.50045   1.50080
  Beta virt. eigenvalues --    1.50572   1.51447   1.54237   1.56991   1.58178
  Beta virt. eigenvalues --    1.58855   1.60475   1.61968   1.65809   1.66116
  Beta virt. eigenvalues --    1.67730   1.68515   1.72613   1.73929   1.74633
  Beta virt. eigenvalues --    1.78515   1.79843   1.80440   1.80614   1.81210
  Beta virt. eigenvalues --    1.83586   1.83982   1.86094   1.86234   1.86874
  Beta virt. eigenvalues --    1.88165   1.88865   1.90081   1.90508   1.91313
  Beta virt. eigenvalues --    1.93133   1.94135   1.96284   1.96325   1.96679
  Beta virt. eigenvalues --    1.97878   1.97906   1.98816   1.99077   1.99527
  Beta virt. eigenvalues --    1.99804   2.00059   2.00880   2.01794   2.04287
  Beta virt. eigenvalues --    2.04952   2.09694   2.10788   2.11705   2.13298
  Beta virt. eigenvalues --    2.14751   2.14878   2.15446   2.15883   2.16865
  Beta virt. eigenvalues --    2.17395   2.18628   2.18920   2.20198   2.20385
  Beta virt. eigenvalues --    2.21349   2.22030   2.22494   2.24634   2.24779
  Beta virt. eigenvalues --    2.25240   2.25353   2.26057   2.27926   2.28022
  Beta virt. eigenvalues --    2.28525   2.29111   2.29347   2.29646   2.30856
  Beta virt. eigenvalues --    2.32171   2.36793   2.38816   2.39809   2.40342
  Beta virt. eigenvalues --    2.41690   2.42820   2.44416   2.46374   2.46758
  Beta virt. eigenvalues --    2.49745   2.52740   2.53626   2.56125   2.56880
  Beta virt. eigenvalues --    2.56970   2.58292   2.58943   2.61771   2.63154
  Beta virt. eigenvalues --    2.64409   2.66801   2.67261   2.67615   2.68681
  Beta virt. eigenvalues --    2.71844   2.71858   2.72312   2.72762   2.74602
  Beta virt. eigenvalues --    2.75085   2.75150   2.77817   2.78073   2.79027
  Beta virt. eigenvalues --    2.84798   2.85675   2.87590   2.88564   2.91936
  Beta virt. eigenvalues --    2.95201   2.95363   2.97505   2.98752   3.05321
  Beta virt. eigenvalues --    3.05516   3.12171   3.12630   3.17781   3.20684
  Beta virt. eigenvalues --    3.21607   3.24318   3.40034   3.43125   3.44345
  Beta virt. eigenvalues --    3.48197   3.51518   3.68675   5.66466   5.67574
  Beta virt. eigenvalues --    5.68398   5.68999   5.69084   5.72959   5.73762
  Beta virt. eigenvalues --   45.81742  46.06553  46.13618  63.11151
          Condensed to atoms (all electrons):
               1          2          3          4          5          6
     1  C    5.224005   0.498776  -0.077846  -0.036413  -0.077846   0.498774
     2  C    0.498776   4.754022   0.530381  -0.002507  -0.043087  -0.012738
     3  C   -0.077846   0.530381   5.030344   0.530771  -0.049245  -0.043087
     4  C   -0.036413  -0.002507   0.530771   4.901828   0.530769  -0.002507
     5  C   -0.077846  -0.043087  -0.049245   0.530769   5.030346   0.530382
     6  C    0.498774  -0.012738  -0.043087  -0.002507   0.530382   4.754020
     7  H    0.003668  -0.036730   0.352391  -0.039254   0.004192   0.000295
     8  H    0.000989   0.003126  -0.037210   0.366435  -0.037210   0.003126
     9  H    0.003668   0.000295   0.004192  -0.039254   0.352390  -0.036730
    10  C    0.008078   0.000002  -0.000000   0.000105  -0.006621  -0.039868
    11  C    0.013834   0.004244  -0.000168  -0.000009   0.004661  -0.072464
    12  C   -0.000839  -0.000000   0.000000  -0.000000   0.000145   0.006285
    13  C    0.000089   0.000003  -0.000002   0.000059   0.001570  -0.003844
    14  C   -0.000001  -0.000000  -0.000000  -0.000000   0.000002  -0.000019
    15  C    0.000003  -0.000000   0.000000  -0.000001   0.000088   0.000049
    16  H   -0.000040   0.000001   0.000000   0.000113   0.000040   0.000403
    17  C    0.000000   0.000000  -0.000000   0.000000  -0.000001  -0.000007
    18  H   -0.000000   0.000000   0.000000   0.000000  -0.000000   0.000002
    19  H   -0.000000   0.000000  -0.000000   0.000000   0.000002  -0.000002
    20  H   -0.000000  -0.000000   0.000000  -0.000000   0.000000  -0.000000
    21  C    0.008078  -0.039868  -0.006621   0.000105  -0.000000   0.000002
    22  C    0.013834  -0.072465   0.004661  -0.000009  -0.000168   0.004244
    23  C   -0.000839   0.006285   0.000145  -0.000000   0.000000  -0.000000
    24  C    0.000089  -0.003844   0.001570   0.000059  -0.000002   0.000003
    25  C   -0.000001  -0.000019   0.000002  -0.000000  -0.000000  -0.000000
    26  C    0.000003   0.000049   0.000088  -0.000001   0.000000  -0.000000
    27  H   -0.000040   0.000403   0.000040   0.000113   0.000000   0.000001
    28  C    0.000000  -0.000007  -0.000001   0.000000  -0.000000   0.000000
    29  H   -0.000000   0.000002  -0.000000   0.000000   0.000000   0.000000
    30  H   -0.000000  -0.000002   0.000002   0.000000  -0.000000   0.000000
    31  H   -0.000000  -0.000000   0.000000  -0.000000   0.000000  -0.000000
    32  N   -0.032589   0.220192  -0.065978   0.003579   0.001257   0.006785
    33  N    0.001872   0.006205  -0.000151   0.000001   0.000000  -0.000055
    34  N   -0.032589   0.006785   0.001257   0.003579  -0.065979   0.220193
    35  N    0.001872  -0.000055   0.000000   0.000001  -0.000151   0.006205
    36  C   -0.000024   0.000000  -0.000000  -0.000000   0.000002  -0.000014
    37  H   -0.000001  -0.000000   0.000000   0.000000  -0.000000   0.000004
    38  H   -0.000001  -0.000000   0.000000   0.000000  -0.000000   0.000004
    39  H   -0.000018   0.000000   0.000000  -0.000000  -0.000000  -0.000012
    40  C   -0.000024  -0.000014   0.000002  -0.000000  -0.000000   0.000000
    41  H   -0.000001   0.000004  -0.000000   0.000000   0.000000  -0.000000
    42  H   -0.000001   0.000004  -0.000000   0.000000   0.000000  -0.000000
    43  H   -0.000018  -0.000012  -0.000000  -0.000000   0.000000   0.000000
    44  Co   0.211226  -0.079343   0.005837  -0.000823   0.005837  -0.079343
               7          8          9         10         11         12
     1  C    0.003668   0.000989   0.003668   0.008078   0.013834  -0.000839
     2  C   -0.036730   0.003126   0.000295   0.000002   0.004244  -0.000000
     3  C    0.352391  -0.037210   0.004192  -0.000000  -0.000168   0.000000
     4  C   -0.039254   0.366435  -0.039254   0.000105  -0.000009  -0.000000
     5  C    0.004192  -0.037210   0.352390  -0.006621   0.004661   0.000145
     6  C    0.000295   0.003126  -0.036730  -0.039868  -0.072464   0.006285
     7  H    0.549602  -0.004509  -0.000133  -0.000000   0.000000   0.000000
     8  H   -0.004509   0.552211  -0.004509  -0.000001   0.000002  -0.000000
     9  H   -0.000133  -0.004509   0.549602   0.000253  -0.000160  -0.000032
    10  C   -0.000000  -0.000001   0.000253   4.653642  -0.074673   0.523490
    11  C    0.000000   0.000002  -0.000160  -0.074673   4.805223  -0.053348
    12  C    0.000000  -0.000000  -0.000032   0.523490  -0.053348   4.671645
    13  C   -0.000000   0.000003  -0.000038   0.519213   0.004492  -0.055411
    14  C   -0.000000   0.000000  -0.000000  -0.050380   0.005064   0.528201
    15  C   -0.000000   0.000000   0.000139  -0.008098  -0.000065  -0.038228
    16  H   -0.000000  -0.000010   0.006373  -0.034310  -0.000154   0.003822
    17  C   -0.000000  -0.000000   0.000002  -0.039244  -0.000056  -0.007389
    18  H    0.000000  -0.000000  -0.000000   0.003842  -0.000213  -0.038431
    19  H    0.000000   0.000000  -0.000009   0.002040   0.000003   0.000906
    20  H   -0.000000  -0.000000   0.000000   0.000892   0.000003   0.002171
    21  C    0.000253  -0.000001  -0.000000  -0.000000  -0.000009   0.000000
    22  C   -0.000160   0.000002   0.000000  -0.000009  -0.018970  -0.000003
    23  C   -0.000032  -0.000000   0.000000   0.000000  -0.000003  -0.000000
    24  C   -0.000038   0.000003  -0.000000   0.000000   0.000000   0.000000
    25  C   -0.000000   0.000000  -0.000000   0.000000   0.000000   0.000000
    26  C    0.000139   0.000000  -0.000000  -0.000000  -0.000000   0.000000
    27  H    0.006373  -0.000010  -0.000000   0.000000   0.000000  -0.000000
    28  C    0.000002  -0.000000  -0.000000   0.000000  -0.000000  -0.000000
    29  H   -0.000000  -0.000000   0.000000   0.000000   0.000000  -0.000000
    30  H   -0.000009   0.000000   0.000000   0.000000   0.000000   0.000000
    31  H    0.000000  -0.000000  -0.000000   0.000000   0.000000   0.000000
    32  N   -0.004644  -0.000099   0.000008   0.000000   0.000515   0.000000
    33  N    0.000001  -0.000000  -0.000000  -0.000000   0.000031   0.000000
    34  N    0.000008  -0.000099  -0.004644   0.270726   0.367854  -0.045930
    35  N   -0.000000  -0.000000   0.000001  -0.045587   0.314544   0.265508
    36  C   -0.000000   0.000000   0.000000   0.005735  -0.044473  -0.048721
    37  H    0.000000  -0.000000  -0.000000  -0.000142   0.000512  -0.001434
    38  H    0.000000  -0.000000  -0.000000  -0.000142   0.000507  -0.001430
    39  H    0.000000   0.000000   0.000000   0.000010   0.000875   0.002715
    40  C    0.000000   0.000000  -0.000000   0.000000   0.000018   0.000000
    41  H   -0.000000  -0.000000   0.000000  -0.000000  -0.000000  -0.000000
    42  H   -0.000000  -0.000000   0.000000  -0.000000  -0.000000  -0.000000
    43  H    0.000000   0.000000   0.000000   0.000000  -0.000003  -0.000000
    44  Co  -0.000179   0.000182  -0.000179   0.006423   0.329999   0.006827
              13         14         15         16         17         18
     1  C    0.000089  -0.000001   0.000003  -0.000040   0.000000  -0.000000
     2  C    0.000003  -0.000000  -0.000000   0.000001   0.000000   0.000000
     3  C   -0.000002  -0.000000   0.000000   0.000000  -0.000000   0.000000
     4  C    0.000059  -0.000000  -0.000001   0.000113   0.000000   0.000000
     5  C    0.001570   0.000002   0.000088   0.000040  -0.000001  -0.000000
     6  C   -0.003844  -0.000019   0.000049   0.000403  -0.000007   0.000002
     7  H   -0.000000  -0.000000  -0.000000  -0.000000  -0.000000   0.000000
     8  H    0.000003   0.000000   0.000000  -0.000010  -0.000000  -0.000000
     9  H   -0.000038  -0.000000   0.000139   0.006373   0.000002  -0.000000
    10  C    0.519213  -0.050380  -0.008098  -0.034310  -0.039244   0.003842
    11  C    0.004492   0.005064  -0.000065  -0.000154  -0.000056  -0.000213
    12  C   -0.055411   0.528201  -0.038228   0.003822  -0.007389  -0.038431
    13  C    5.005651  -0.044138   0.525954   0.356210  -0.034342   0.000227
    14  C   -0.044138   5.013431  -0.038605   0.000440   0.525971   0.362182
    15  C    0.525954  -0.038605   4.898622  -0.037578   0.542260   0.003993
    16  H    0.356210   0.000440  -0.037578   0.516616   0.003738   0.000014
    17  C   -0.034342   0.525971   0.542260   0.003738   4.898070  -0.036549
    18  H    0.000227   0.362182   0.003993   0.000014  -0.036549   0.534613
    19  H   -0.036072   0.004061   0.369043  -0.004278  -0.036335  -0.000149
    20  H    0.003865  -0.036401  -0.035492  -0.000145   0.368604  -0.004257
    21  C    0.000000   0.000000  -0.000000   0.000000   0.000000   0.000000
    22  C    0.000000   0.000000  -0.000000   0.000000  -0.000000   0.000000
    23  C    0.000000   0.000000   0.000000  -0.000000  -0.000000  -0.000000
    24  C    0.000000   0.000000  -0.000000   0.000000   0.000000   0.000000
    25  C    0.000000  -0.000000   0.000000  -0.000000  -0.000000   0.000000
    26  C   -0.000000   0.000000  -0.000000   0.000000  -0.000000   0.000000
    27  H    0.000000  -0.000000   0.000000   0.000000   0.000000  -0.000000
    28  C    0.000000  -0.000000  -0.000000   0.000000   0.000000   0.000000
    29  H    0.000000   0.000000   0.000000  -0.000000   0.000000  -0.000000
    30  H   -0.000000  -0.000000   0.000000  -0.000000   0.000000   0.000000
    31  H   -0.000000   0.000000   0.000000  -0.000000   0.000000   0.000000
    32  N   -0.000000   0.000000   0.000000   0.000000  -0.000000  -0.000000
    33  N    0.000000  -0.000000  -0.000000   0.000000   0.000000  -0.000000
    34  N   -0.070870   0.009309   0.004943  -0.004279  -0.000222  -0.000094
    35  N    0.009585  -0.079888  -0.000155  -0.000104   0.005215  -0.006866
    36  C   -0.000123  -0.002280   0.000009   0.000003  -0.000116   0.004015
    37  H   -0.000010   0.002477  -0.000001  -0.000000   0.000001   0.000564
    38  H   -0.000010   0.002475  -0.000001  -0.000000   0.000001   0.000562
    39  H    0.000006   0.000033  -0.000000  -0.000000   0.000001  -0.000041
    40  C    0.000000   0.000000  -0.000000   0.000000   0.000000  -0.000000
    41  H   -0.000000  -0.000000   0.000000  -0.000000   0.000000  -0.000000
    42  H   -0.000000  -0.000000   0.000000  -0.000000   0.000000  -0.000000
    43  H    0.000000   0.000000  -0.000000   0.000000  -0.000000   0.000000
    44  Co  -0.001436  -0.001208   0.000215   0.000036   0.000153   0.000001
              19         20         21         22         23         24
     1  C   -0.000000  -0.000000   0.008078   0.013834  -0.000839   0.000089
     2  C    0.000000  -0.000000  -0.039868  -0.072465   0.006285  -0.003844
     3  C   -0.000000   0.000000  -0.006621   0.004661   0.000145   0.001570
     4  C    0.000000  -0.000000   0.000105  -0.000009  -0.000000   0.000059
     5  C    0.000002   0.000000  -0.000000  -0.000168   0.000000  -0.000002
     6  C   -0.000002  -0.000000   0.000002   0.004244  -0.000000   0.000003
     7  H    0.000000  -0.000000   0.000253  -0.000160  -0.000032  -0.000038
     8  H    0.000000  -0.000000  -0.000001   0.000002  -0.000000   0.000003
     9  H   -0.000009   0.000000  -0.000000   0.000000   0.000000  -0.000000
    10  C    0.002040   0.000892  -0.000000  -0.000009   0.000000   0.000000
    11  C    0.000003   0.000003  -0.000009  -0.018970  -0.000003   0.000000
    12  C    0.000906   0.002171   0.000000  -0.000003  -0.000000   0.000000
    13  C   -0.036072   0.003865   0.000000   0.000000   0.000000   0.000000
    14  C    0.004061  -0.036401   0.000000   0.000000   0.000000   0.000000
    15  C    0.369043  -0.035492  -0.000000  -0.000000   0.000000  -0.000000
    16  H   -0.004278  -0.000145   0.000000   0.000000  -0.000000   0.000000
    17  C   -0.036335   0.368604   0.000000  -0.000000  -0.000000   0.000000
    18  H   -0.000149  -0.004257   0.000000   0.000000  -0.000000   0.000000
    19  H    0.532392  -0.004347   0.000000   0.000000   0.000000  -0.000000
    20  H   -0.004347   0.533293   0.000000   0.000000   0.000000  -0.000000
    21  C    0.000000   0.000000   4.653633  -0.074671   0.523491   0.519215
    22  C    0.000000   0.000000  -0.074671   4.805224  -0.053349   0.004492
    23  C    0.000000   0.000000   0.523491  -0.053349   4.671654  -0.055412
    24  C   -0.000000  -0.000000   0.519215   0.004492  -0.055412   5.005658
    25  C   -0.000000   0.000000  -0.050379   0.005064   0.528198  -0.044137
    26  C    0.000000   0.000000  -0.008098  -0.000065  -0.038228   0.525950
    27  H   -0.000000  -0.000000  -0.034310  -0.000154   0.003822   0.356210
    28  C    0.000000   0.000000  -0.039244  -0.000056  -0.007390  -0.034342
    29  H    0.000000   0.000000   0.003842  -0.000213  -0.038431   0.000227
    30  H    0.000000   0.000000   0.002040   0.000003   0.000906  -0.036072
    31  H    0.000000   0.000000   0.000892   0.000003   0.002171   0.003865
    32  N   -0.000000   0.000000   0.270724   0.367856  -0.045930  -0.070871
    33  N   -0.000000  -0.000000  -0.045588   0.314542   0.265509   0.009585
    34  N   -0.000083   0.000004   0.000000   0.000515   0.000000  -0.000000
    35  N    0.000003  -0.000095  -0.000000   0.000031   0.000000   0.000000
    36  C   -0.000000  -0.000001   0.000000   0.000018   0.000000   0.000000
    37  H   -0.000000  -0.000000  -0.000000  -0.000000  -0.000000  -0.000000
    38  H   -0.000000  -0.000000  -0.000000  -0.000000  -0.000000  -0.000000
    39  H   -0.000000  -0.000000   0.000000  -0.000003  -0.000000   0.000000
    40  C    0.000000  -0.000000   0.005735  -0.044473  -0.048721  -0.000123
    41  H   -0.000000  -0.000000  -0.000143   0.000507  -0.001430  -0.000010
    42  H   -0.000000  -0.000000  -0.000142   0.000511  -0.001434  -0.000010
    43  H   -0.000000   0.000000   0.000010   0.000875   0.002715   0.000006
    44  Co   0.000016  -0.000014   0.006423   0.330000   0.006827  -0.001436
              25         26         27         28         29         30
     1  C   -0.000001   0.000003  -0.000040   0.000000  -0.000000  -0.000000
     2  C   -0.000019   0.000049   0.000403  -0.000007   0.000002  -0.000002
     3  C    0.000002   0.000088   0.000040  -0.000001  -0.000000   0.000002
     4  C   -0.000000  -0.000001   0.000113   0.000000   0.000000   0.000000
     5  C   -0.000000   0.000000   0.000000  -0.000000   0.000000  -0.000000
     6  C   -0.000000  -0.000000   0.000001   0.000000   0.000000   0.000000
     7  H   -0.000000   0.000139   0.006373   0.000002  -0.000000  -0.000009
     8  H    0.000000   0.000000  -0.000010  -0.000000  -0.000000   0.000000
     9  H   -0.000000  -0.000000  -0.000000  -0.000000   0.000000   0.000000
    10  C    0.000000  -0.000000   0.000000   0.000000   0.000000   0.000000
    11  C    0.000000  -0.000000   0.000000  -0.000000   0.000000   0.000000
    12  C    0.000000   0.000000  -0.000000  -0.000000  -0.000000   0.000000
    13  C    0.000000  -0.000000   0.000000   0.000000   0.000000  -0.000000
    14  C   -0.000000   0.000000  -0.000000  -0.000000   0.000000  -0.000000
    15  C    0.000000  -0.000000   0.000000  -0.000000   0.000000   0.000000
    16  H   -0.000000   0.000000   0.000000   0.000000  -0.000000  -0.000000
    17  C   -0.000000  -0.000000   0.000000   0.000000   0.000000   0.000000
    18  H    0.000000   0.000000  -0.000000   0.000000  -0.000000   0.000000
    19  H   -0.000000   0.000000  -0.000000   0.000000   0.000000   0.000000
    20  H    0.000000   0.000000  -0.000000   0.000000   0.000000   0.000000
    21  C   -0.050379  -0.008098  -0.034310  -0.039244   0.003842   0.002040
    22  C    0.005064  -0.000065  -0.000154  -0.000056  -0.000213   0.000003
    23  C    0.528198  -0.038228   0.003822  -0.007390  -0.038431   0.000906
    24  C   -0.044137   0.525950   0.356210  -0.034342   0.000227  -0.036072
    25  C    5.013421  -0.038606   0.000440   0.525975   0.362183   0.004061
    26  C   -0.038606   4.898624  -0.037578   0.542261   0.003993   0.369043
    27  H    0.000440  -0.037578   0.516614   0.003738   0.000014  -0.004278
    28  C    0.525975   0.542261   0.003738   4.898065  -0.036549  -0.036335
    29  H    0.362183   0.003993   0.000014  -0.036549   0.534612  -0.000149
    30  H    0.004061   0.369043  -0.004278  -0.036335  -0.000149   0.532391
    31  H   -0.036401  -0.035492  -0.000145   0.368603  -0.004257  -0.004347
    32  N    0.009308   0.004943  -0.004279  -0.000222  -0.000094  -0.000083
    33  N   -0.079886  -0.000155  -0.000104   0.005215  -0.006866   0.000003
    34  N    0.000000   0.000000   0.000000  -0.000000  -0.000000  -0.000000
    35  N   -0.000000  -0.000000   0.000000   0.000000  -0.000000  -0.000000
    36  C    0.000000  -0.000000   0.000000   0.000000  -0.000000   0.000000
    37  H   -0.000000   0.000000  -0.000000   0.000000  -0.000000  -0.000000
    38  H   -0.000000   0.000000  -0.000000   0.000000  -0.000000  -0.000000
    39  H    0.000000  -0.000000   0.000000  -0.000000   0.000000  -0.000000
    40  C   -0.002280   0.000009   0.000003  -0.000116   0.004015  -0.000000
    41  H    0.002475  -0.000001  -0.000000   0.000001   0.000562  -0.000000
    42  H    0.002476  -0.000001  -0.000000   0.000001   0.000564  -0.000000
    43  H    0.000033  -0.000000  -0.000000   0.000001  -0.000041  -0.000000
    44  Co  -0.001208   0.000215   0.000036   0.000153   0.000001   0.000016
              31         32         33         34         35         36
     1  C   -0.000000  -0.032589   0.001872  -0.032589   0.001872  -0.000024
     2  C   -0.000000   0.220192   0.006205   0.006785  -0.000055   0.000000
     3  C    0.000000  -0.065978  -0.000151   0.001257   0.000000  -0.000000
     4  C   -0.000000   0.003579   0.000001   0.003579   0.000001  -0.000000
     5  C    0.000000   0.001257   0.000000  -0.065979  -0.000151   0.000002
     6  C   -0.000000   0.006785  -0.000055   0.220193   0.006205  -0.000014
     7  H    0.000000  -0.004644   0.000001   0.000008  -0.000000  -0.000000
     8  H   -0.000000  -0.000099  -0.000000  -0.000099  -0.000000   0.000000
     9  H   -0.000000   0.000008  -0.000000  -0.004644   0.000001   0.000000
    10  C    0.000000   0.000000  -0.000000   0.270726  -0.045587   0.005735
    11  C    0.000000   0.000515   0.000031   0.367854   0.314544  -0.044473
    12  C    0.000000   0.000000   0.000000  -0.045930   0.265508  -0.048721
    13  C   -0.000000  -0.000000   0.000000  -0.070870   0.009585  -0.000123
    14  C    0.000000   0.000000  -0.000000   0.009309  -0.079888  -0.002280
    15  C    0.000000   0.000000  -0.000000   0.004943  -0.000155   0.000009
    16  H   -0.000000   0.000000   0.000000  -0.004279  -0.000104   0.000003
    17  C    0.000000  -0.000000   0.000000  -0.000222   0.005215  -0.000116
    18  H    0.000000  -0.000000  -0.000000  -0.000094  -0.006866   0.004015
    19  H    0.000000  -0.000000  -0.000000  -0.000083   0.000003  -0.000000
    20  H    0.000000   0.000000  -0.000000   0.000004  -0.000095  -0.000001
    21  C    0.000892   0.270724  -0.045588   0.000000  -0.000000   0.000000
    22  C    0.000003   0.367856   0.314542   0.000515   0.000031   0.000018
    23  C    0.002171  -0.045930   0.265509   0.000000   0.000000   0.000000
    24  C    0.003865  -0.070871   0.009585  -0.000000   0.000000   0.000000
    25  C   -0.036401   0.009308  -0.079886   0.000000  -0.000000   0.000000
    26  C   -0.035492   0.004943  -0.000155   0.000000  -0.000000  -0.000000
    27  H   -0.000145  -0.004279  -0.000104   0.000000   0.000000   0.000000
    28  C    0.368603  -0.000222   0.005215  -0.000000   0.000000   0.000000
    29  H   -0.004257  -0.000094  -0.006866  -0.000000  -0.000000  -0.000000
    30  H   -0.004347  -0.000083   0.000003  -0.000000  -0.000000   0.000000
    31  H    0.533296   0.000004  -0.000095   0.000000  -0.000000  -0.000000
    32  N    0.000004   7.178393  -0.068642  -0.000265   0.000001  -0.000000
    33  N   -0.000095  -0.068642   7.082602   0.000001  -0.000000  -0.000000
    34  N    0.000000  -0.000265   0.000001   7.178393  -0.068644   0.005417
    35  N   -0.000000   0.000001  -0.000000  -0.068644   7.082609   0.295148
    36  C   -0.000000  -0.000000  -0.000000   0.005417   0.295148   5.055141
    37  H   -0.000000   0.000000   0.000000  -0.000063  -0.040413   0.377777
    38  H   -0.000000   0.000000   0.000000  -0.000063  -0.040416   0.377780
    39  H    0.000000  -0.000000   0.000001   0.000145  -0.032536   0.377406
    40  C   -0.000001   0.005416   0.295150  -0.000000  -0.000000   0.000000
    41  H   -0.000000  -0.000063  -0.040417   0.000000   0.000000  -0.000000
    42  H   -0.000000  -0.000063  -0.040412   0.000000   0.000000  -0.000000
    43  H   -0.000000   0.000145  -0.032535  -0.000000   0.000001  -0.000001
    44  Co  -0.000014  -0.079696  -0.051901  -0.079697  -0.051901  -0.005921
              37         38         39         40         41         42
     1  C   -0.000001  -0.000001  -0.000018  -0.000024  -0.000001  -0.000001
     2  C   -0.000000  -0.000000   0.000000  -0.000014   0.000004   0.000004
     3  C    0.000000   0.000000   0.000000   0.000002  -0.000000  -0.000000
     4  C    0.000000   0.000000  -0.000000  -0.000000   0.000000   0.000000
     5  C   -0.000000  -0.000000  -0.000000  -0.000000   0.000000   0.000000
     6  C    0.000004   0.000004  -0.000012   0.000000  -0.000000  -0.000000
     7  H    0.000000   0.000000   0.000000   0.000000  -0.000000  -0.000000
     8  H   -0.000000  -0.000000   0.000000   0.000000  -0.000000  -0.000000
     9  H   -0.000000  -0.000000   0.000000  -0.000000   0.000000   0.000000
    10  C   -0.000142  -0.000142   0.000010   0.000000  -0.000000  -0.000000
    11  C    0.000512   0.000507   0.000875   0.000018  -0.000000  -0.000000
    12  C   -0.001434  -0.001430   0.002715   0.000000  -0.000000  -0.000000
    13  C   -0.000010  -0.000010   0.000006   0.000000  -0.000000  -0.000000
    14  C    0.002477   0.002475   0.000033   0.000000  -0.000000  -0.000000
    15  C   -0.000001  -0.000001  -0.000000  -0.000000   0.000000   0.000000
    16  H   -0.000000  -0.000000  -0.000000   0.000000  -0.000000  -0.000000
    17  C    0.000001   0.000001   0.000001   0.000000   0.000000   0.000000
    18  H    0.000564   0.000562  -0.000041  -0.000000  -0.000000  -0.000000
    19  H   -0.000000  -0.000000  -0.000000   0.000000  -0.000000  -0.000000
    20  H   -0.000000  -0.000000  -0.000000  -0.000000  -0.000000  -0.000000
    21  C   -0.000000  -0.000000   0.000000   0.005735  -0.000143  -0.000142
    22  C   -0.000000  -0.000000  -0.000003  -0.044473   0.000507   0.000511
    23  C   -0.000000  -0.000000  -0.000000  -0.048721  -0.001430  -0.001434
    24  C   -0.000000  -0.000000   0.000000  -0.000123  -0.000010  -0.000010
    25  C   -0.000000  -0.000000   0.000000  -0.002280   0.002475   0.002476
    26  C    0.000000   0.000000  -0.000000   0.000009  -0.000001  -0.000001
    27  H   -0.000000  -0.000000   0.000000   0.000003  -0.000000  -0.000000
    28  C    0.000000   0.000000  -0.000000  -0.000116   0.000001   0.000001
    29  H   -0.000000  -0.000000   0.000000   0.004015   0.000562   0.000564
    30  H   -0.000000  -0.000000  -0.000000  -0.000000  -0.000000  -0.000000
    31  H   -0.000000  -0.000000   0.000000  -0.000001  -0.000000  -0.000000
    32  N    0.000000   0.000000  -0.000000   0.005416  -0.000063  -0.000063
    33  N    0.000000   0.000000   0.000001   0.295150  -0.040417  -0.040412
    34  N   -0.000063  -0.000063   0.000145  -0.000000   0.000000   0.000000
    35  N   -0.040413  -0.040416  -0.032536  -0.000000   0.000000   0.000000
    36  C    0.377777   0.377780   0.377406   0.000000  -0.000000  -0.000000
    37  H    0.523121  -0.040375  -0.024306  -0.000000   0.000000  -0.000000
    38  H   -0.040375   0.523121  -0.024314  -0.000000  -0.000000   0.000000
    39  H   -0.024306  -0.024314   0.471330  -0.000001   0.000000   0.000000
    40  C   -0.000000  -0.000000  -0.000001   5.055142   0.377781   0.377776
    41  H    0.000000  -0.000000   0.000000   0.377781   0.523121  -0.040375
    42  H   -0.000000   0.000000   0.000000   0.377776  -0.040375   0.523122
    43  H    0.000000   0.000000  -0.000026   0.377406  -0.024314  -0.024306
    44  Co   0.000578   0.000581   0.007354  -0.005921   0.000581   0.000578
              43         44
     1  C   -0.000018   0.211226
     2  C   -0.000012  -0.079343
     3  C   -0.000000   0.005837
     4  C   -0.000000  -0.000823
     5  C    0.000000   0.005837
     6  C    0.000000  -0.079343
     7  H    0.000000  -0.000179
     8  H    0.000000   0.000182
     9  H    0.000000  -0.000179
    10  C    0.000000   0.006423
    11  C   -0.000003   0.329999
    12  C   -0.000000   0.006827
    13  C    0.000000  -0.001436
    14  C    0.000000  -0.001208
    15  C   -0.000000   0.000215
    16  H    0.000000   0.000036
    17  C   -0.000000   0.000153
    18  H    0.000000   0.000001
    19  H   -0.000000   0.000016
    20  H    0.000000  -0.000014
    21  C    0.000010   0.006423
    22  C    0.000875   0.330000
    23  C    0.002715   0.006827
    24  C    0.000006  -0.001436
    25  C    0.000033  -0.001208
    26  C   -0.000000   0.000215
    27  H   -0.000000   0.000036
    28  C    0.000001   0.000153
    29  H   -0.000041   0.000001
    30  H   -0.000000   0.000016
    31  H   -0.000000  -0.000014
    32  N    0.000145  -0.079696
    33  N   -0.032535  -0.051901
    34  N   -0.000000  -0.079697
    35  N    0.000001  -0.051901
    36  C   -0.000001  -0.005921
    37  H    0.000000   0.000578
    38  H    0.000000   0.000581
    39  H   -0.000026   0.007354
    40  C    0.377406  -0.005921
    41  H   -0.024314   0.000581
    42  H   -0.024306   0.000578
    43  H    0.471329   0.007354
    44  Co   0.007354  16.460927
          Atomic-Atomic Spin Densities.
               1          2          3          4          5          6
     1  C   -0.000000   0.000000  -0.000000   0.000000  -0.000000   0.000000
     2  C    0.000000   0.000000  -0.000000  -0.000000  -0.000000   0.000000
     3  C   -0.000000  -0.000000  -0.000000   0.000000  -0.000000  -0.000000
     4  C    0.000000  -0.000000   0.000000   0.000000   0.000000  -0.000000
     5  C   -0.000000  -0.000000  -0.000000   0.000000  -0.000000  -0.000000
     6  C    0.000000   0.000000  -0.000000  -0.000000  -0.000000   0.000000
     7  H   -0.000000   0.000000  -0.000000   0.000000  -0.000000   0.000000
     8  H    0.000000   0.000000   0.000000  -0.000000   0.000000   0.000000
     9  H   -0.000000   0.000000  -0.000000   0.000000  -0.000000   0.000000
    10  C   -0.000000   0.000000   0.000000  -0.000000  -0.000000  -0.000000
    11  C   -0.000000  -0.000000   0.000000  -0.000000   0.000000  -0.000000
    12  C    0.000000   0.000000   0.000000  -0.000000   0.000000  -0.000000
    13  C   -0.000000  -0.000000   0.000000  -0.000000  -0.000000   0.000000
    14  C   -0.000000  -0.000000   0.000000  -0.000000   0.000000   0.000000
    15  C    0.000000  -0.000000   0.000000  -0.000000   0.000000   0.000000
    16  H    0.000000   0.000000  -0.000000  -0.000000  -0.000000  -0.000000
    17  C   -0.000000   0.000000  -0.000000  -0.000000  -0.000000  -0.000000
    18  H    0.000000   0.000000  -0.000000   0.000000  -0.000000  -0.000000
    19  H   -0.000000   0.000000  -0.000000   0.000000  -0.000000  -0.000000
    20  H   -0.000000  -0.000000   0.000000  -0.000000  -0.000000   0.000000
    21  C   -0.000000  -0.000000  -0.000000  -0.000000   0.000000   0.000000
    22  C   -0.000000  -0.000000   0.000000  -0.000000   0.000000  -0.000000
    23  C    0.000000  -0.000000  -0.000000  -0.000000   0.000000   0.000000
    24  C   -0.000000   0.000000  -0.000000  -0.000000   0.000000  -0.000000
    25  C   -0.000000   0.000000   0.000000  -0.000000   0.000000  -0.000000
    26  C    0.000000   0.000000   0.000000  -0.000000   0.000000  -0.000000
    27  H    0.000000  -0.000000  -0.000000  -0.000000  -0.000000   0.000000
    28  C   -0.000000  -0.000000  -0.000000  -0.000000  -0.000000   0.000000
    29  H    0.000000  -0.000000  -0.000000   0.000000  -0.000000   0.000000
    30  H   -0.000000  -0.000000  -0.000000   0.000000  -0.000000   0.000000
    31  H   -0.000000   0.000000  -0.000000  -0.000000   0.000000  -0.000000
    32  N   -0.000000  -0.000000  -0.000000   0.000000  -0.000000   0.000000
    33  N   -0.000000   0.000000  -0.000000  -0.000000   0.000000  -0.000000
    34  N   -0.000000   0.000000  -0.000000   0.000000  -0.000000  -0.000000
    35  N   -0.000000  -0.000000   0.000000  -0.000000  -0.000000   0.000000
    36  C   -0.000000  -0.000000   0.000000  -0.000000   0.000000   0.000000
    37  H    0.000000   0.000000  -0.000000   0.000000  -0.000000  -0.000000
    38  H    0.000000   0.000000  -0.000000   0.000000  -0.000000  -0.000000
    39  H    0.000000   0.000000  -0.000000   0.000000  -0.000000  -0.000000
    40  C   -0.000000   0.000000   0.000000  -0.000000   0.000000  -0.000000
    41  H    0.000000  -0.000000  -0.000000   0.000000  -0.000000   0.000000
    42  H    0.000000  -0.000000  -0.000000   0.000000  -0.000000   0.000000
    43  H    0.000000  -0.000000  -0.000000   0.000000  -0.000000   0.000000
    44  Co   0.000000  -0.000000   0.000000   0.000000   0.000000  -0.000000
               7          8          9         10         11         12
     1  C   -0.000000   0.000000  -0.000000  -0.000000  -0.000000   0.000000
     2  C    0.000000   0.000000   0.000000   0.000000  -0.000000   0.000000
     3  C   -0.000000   0.000000  -0.000000   0.000000   0.000000   0.000000
     4  C    0.000000  -0.000000   0.000000  -0.000000  -0.000000  -0.000000
     5  C   -0.000000   0.000000  -0.000000  -0.000000   0.000000   0.000000
     6  C    0.000000   0.000000   0.000000  -0.000000  -0.000000  -0.000000
     7  H   -0.000000   0.000000  -0.000000   0.000000  -0.000000  -0.000000
     8  H    0.000000  -0.000000   0.000000   0.000000  -0.000000  -0.000000
     9  H   -0.000000   0.000000  -0.000000   0.000000  -0.000000   0.000000
    10  C    0.000000   0.000000   0.000000   0.000000  -0.000000   0.000000
    11  C   -0.000000  -0.000000  -0.000000  -0.000000  -0.000000  -0.000000
    12  C   -0.000000  -0.000000   0.000000   0.000000  -0.000000   0.000000
    13  C   -0.000000  -0.000000  -0.000000  -0.000000  -0.000000  -0.000000
    14  C    0.000000  -0.000000   0.000000   0.000000   0.000000  -0.000000
    15  C   -0.000000  -0.000000  -0.000000   0.000000   0.000000  -0.000000
    16  H    0.000000   0.000000   0.000000   0.000000  -0.000000   0.000000
    17  C    0.000000   0.000000   0.000000  -0.000000  -0.000000   0.000000
    18  H   -0.000000   0.000000  -0.000000  -0.000000  -0.000000   0.000000
    19  H    0.000000   0.000000   0.000000  -0.000000  -0.000000   0.000000
    20  H    0.000000  -0.000000   0.000000   0.000000   0.000000  -0.000000
    21  C    0.000000   0.000000   0.000000   0.000000   0.000000  -0.000000
    22  C   -0.000000  -0.000000  -0.000000   0.000000  -0.000000  -0.000000
    23  C    0.000000  -0.000000  -0.000000  -0.000000  -0.000000  -0.000000
    24  C   -0.000000  -0.000000  -0.000000  -0.000000   0.000000   0.000000
    25  C    0.000000  -0.000000   0.000000  -0.000000   0.000000   0.000000
    26  C   -0.000000  -0.000000  -0.000000  -0.000000  -0.000000  -0.000000
    27  H    0.000000   0.000000   0.000000   0.000000  -0.000000  -0.000000
    28  C    0.000000   0.000000   0.000000   0.000000  -0.000000  -0.000000
    29  H   -0.000000   0.000000  -0.000000   0.000000  -0.000000  -0.000000
    30  H    0.000000   0.000000   0.000000   0.000000   0.000000  -0.000000
    31  H    0.000000  -0.000000   0.000000  -0.000000   0.000000   0.000000
    32  N    0.000000   0.000000   0.000000   0.000000  -0.000000  -0.000000
    33  N    0.000000  -0.000000   0.000000  -0.000000   0.000000   0.000000
    34  N    0.000000   0.000000   0.000000   0.000000   0.000000  -0.000000
    35  N    0.000000  -0.000000   0.000000  -0.000000   0.000000   0.000000
    36  C    0.000000  -0.000000  -0.000000  -0.000000   0.000000  -0.000000
    37  H   -0.000000   0.000000  -0.000000  -0.000000  -0.000000  -0.000000
    38  H   -0.000000   0.000000  -0.000000  -0.000000  -0.000000  -0.000000
    39  H   -0.000000   0.000000  -0.000000   0.000000  -0.000000  -0.000000
    40  C   -0.000000  -0.000000   0.000000  -0.000000   0.000000   0.000000
    41  H   -0.000000   0.000000  -0.000000   0.000000  -0.000000  -0.000000
    42  H   -0.000000   0.000000  -0.000000   0.000000  -0.000000  -0.000000
    43  H   -0.000000   0.000000  -0.000000   0.000000  -0.000000  -0.000000
    44  Co  -0.000000  -0.000000  -0.000000  -0.000000  -0.000000  -0.000000
              13         14         15         16         17         18
     1  C   -0.000000  -0.000000   0.000000   0.000000  -0.000000   0.000000
     2  C   -0.000000  -0.000000  -0.000000   0.000000   0.000000   0.000000
     3  C    0.000000   0.000000   0.000000  -0.000000  -0.000000  -0.000000
     4  C   -0.000000  -0.000000  -0.000000  -0.000000  -0.000000   0.000000
     5  C   -0.000000   0.000000   0.000000  -0.000000  -0.000000  -0.000000
     6  C    0.000000   0.000000   0.000000  -0.000000  -0.000000  -0.000000
     7  H   -0.000000   0.000000  -0.000000   0.000000   0.000000  -0.000000
     8  H   -0.000000  -0.000000  -0.000000   0.000000   0.000000   0.000000
     9  H   -0.000000   0.000000  -0.000000   0.000000   0.000000  -0.000000
    10  C   -0.000000   0.000000   0.000000   0.000000  -0.000000  -0.000000
    11  C   -0.000000   0.000000   0.000000  -0.000000  -0.000000  -0.000000
    12  C   -0.000000  -0.000000  -0.000000   0.000000   0.000000   0.000000
    13  C   -0.000000  -0.000000   0.000000  -0.000000   0.000000   0.000000
    14  C   -0.000000  -0.000000   0.000000  -0.000000   0.000000  -0.000000
    15  C    0.000000   0.000000   0.000000  -0.000000  -0.000000   0.000000
    16  H   -0.000000  -0.000000  -0.000000   0.000000   0.000000   0.000000
[...]
    40 C(13)  Bbb     0.0000     0.000     0.000     0.000  0.0011  0.0002  1.0000
              Bcc     0.0000     0.000     0.000     0.000  0.3253  0.9456 -0.0006
 
              Baa    -0.0000    -0.000    -0.000    -0.000  0.8730  0.0287 -0.4869
    41 H(1)   Bbb     0.0000     0.000     0.000     0.000  0.4353 -0.4962  0.7512
              Bcc     0.0000     0.000     0.000     0.000  0.2200  0.8678  0.4456
 
              Baa    -0.0000    -0.000    -0.000    -0.000  0.8748  0.0285  0.4837
    42 H(1)   Bbb     0.0000     0.000     0.000     0.000 -0.4330  0.4939  0.7540
              Bcc     0.0000     0.000     0.000     0.000  0.2175  0.8690 -0.4444
 
              Baa    -0.0000    -0.000    -0.000    -0.000  0.9880 -0.1543 -0.0020
    43 H(1)   Bbb     0.0000     0.000     0.000     0.000  0.0012 -0.0053  1.0000
              Bcc     0.0000     0.000     0.000     0.000  0.1544  0.9880  0.0051
 
              Baa    -0.0000    -0.000    -0.000    -0.000  1.0000  0.0000  0.0000
    44 Co(59) Bbb     0.0000     0.000     0.000     0.000 -0.0000  0.0060  1.0000
              Bcc     0.0000     0.000     0.000     0.000 -0.0000  1.0000 -0.0060
 

 ---------------------------------------------------------------------------------

   1 Symmetry operations used in ECPInt.
 ECPInt:  NShTT=   11781 NPrTT=   71406 LenC2=    9568 LenP2D=   32169.
 LDataN:  DoStor=T MaxTD1= 7 Len=  274
 Calling FoFJK, ICntrl=      2127 FMM=F ISym2X=0 I1Cent= 0 IOpClX= 1 NMat=1 NMatS=1 NMatT=0.
 -------------------------------------------------------------------
 Center     Atomic                   Forces (Hartrees/Bohr)
 Number     Number              X              Y              Z
 -------------------------------------------------------------------
      1        6           0.000001374    0.062902360    0.000005613
      2        6          -0.015387286   -0.024364394   -0.000006814
      3        6           0.008083740    0.003091060    0.000001430
      4        6           0.000000328   -0.006803688    0.000000250
      5        6          -0.008082799    0.003093769    0.000000860
      6        6           0.015387611   -0.024369899   -0.000003025
      7        1           0.002180705   -0.004038079    0.000000546
      8        1          -0.000000084    0.006513005   -0.000000643
      9        1          -0.002181534   -0.004038497    0.000000402
     10        6           0.005730352    0.001565609   -0.000001550
     11        6           0.003923292   -0.007317701   -0.000004009
     12        6          -0.015260097    0.001141364    0.000002201
     13        6          -0.011861382   -0.003481185   -0.000000480
     14        6           0.001489704   -0.003316545   -0.000000066
     15        6           0.006259948   -0.003788238    0.000000579
     16        1           0.000411015    0.000027196    0.000000191
     17        6          -0.001955477    0.005101148   -0.000000620
     18        1           0.000068946    0.000114242   -0.000000350
     19        1          -0.001213596   -0.000457924    0.000000060
     20        1           0.000707565   -0.000129870    0.000000126
     21        6          -0.005722775    0.001564535   -0.000005195
     22        6          -0.003923100   -0.007317851    0.000001916
     23        6           0.015241070    0.001136846    0.000003279
     24        6           0.011848235   -0.003479592    0.000000731
     25        6          -0.001473751   -0.003314450    0.000001022
     26        6          -0.006246791   -0.003786858    0.000000621
     27        1          -0.000410298    0.000027278   -0.000000147
     28        6           0.001944409    0.005101343   -0.000001025
     29        1          -0.000070103    0.000112282   -0.000000462
     30        1           0.001211284   -0.000456078    0.000000048
     31        1          -0.000703341   -0.000129333    0.000000074
     32        7          -0.001828042    0.029642346    0.000004103
     33        7          -0.009256662   -0.012226075    0.000000694
     34        7           0.001826101    0.029650583    0.000000735
     35        7           0.009264873   -0.012233361    0.000006003
     36        6          -0.001085652    0.006004832    0.000000552
     37        1          -0.000428410    0.000698599    0.000011970
     38        1          -0.000428664    0.000700980   -0.000014471
     39        1          -0.001219784   -0.001136855   -0.000000298
     40        6           0.001083379    0.006001666    0.000000672
     41        1           0.000428610    0.000700360   -0.000014618
     42        1           0.000428867    0.000699480    0.000012683
     43        1           0.001220386   -0.001136502   -0.000000115
     44       27          -0.000002166   -0.038267906   -0.000003474
 -------------------------------------------------------------------
 Cartesian Forces:  Max     0.062902360 RMS     0.009070349

 GradGradGradGradGradGradGradGradGradGradGradGradGradGradGradGradGradGrad
 Berny optimization.
 Search for a local minimum.
 Step number   1 out of a maximum of    2
 All quantities printed in internal units (Hartrees-Bohrs-Radians)
 Second derivative matrix not updated -- first step.
 ITU=  0
     Eigenvalues ---    0.00054   0.00069   0.00191   0.00237   0.00239
     Eigenvalues ---    0.00384   0.00445   0.00527   0.00533   0.00609
     Eigenvalues ---    0.00662   0.00839   0.00862   0.01343   0.01588
     Eigenvalues ---    0.01868   0.01892   0.02008   0.02531   0.02532
     Eigenvalues ---    0.02985   0.03354   0.03989   0.04086   0.04397
     Eigenvalues ---    0.04477   0.04686   0.05400   0.05493   0.06532
     Eigenvalues ---    0.06583   0.06939   0.06996   0.07029   0.07034
     Eigenvalues ---    0.07082   0.07282   0.07676   0.07742   0.09691
     Eigenvalues ---    0.10309   0.10509   0.10643   0.11928   0.11994
     Eigenvalues ---    0.12080   0.12255   0.12688   0.12716   0.13339
     Eigenvalues ---    0.13369   0.13580   0.13617   0.14860   0.15775
     Eigenvalues ---    0.15804   0.16423   0.19276   0.20200   0.20548
     Eigenvalues ---    0.21777   0.22800   0.25048   0.26924   0.28911
     Eigenvalues ---    0.30029   0.30556   0.30873   0.32239   0.32405
     Eigenvalues ---    0.33643   0.34382   0.35896   0.37960   0.38695
     Eigenvalues ---    0.40299   0.41137   0.43461   0.47320   0.48571
     Eigenvalues ---    0.49227   0.49319   0.49531   0.51425   0.53071
     Eigenvalues ---    0.54544   0.54790   0.55694   0.66690   0.67428
     Eigenvalues ---    0.71632   0.73851   0.76119   0.83527   0.89642
     Eigenvalues ---    0.90896   0.92349   0.94219   0.95920   0.96023
     Eigenvalues ---    0.97948   1.06642   1.07310   1.13638   1.17359
     Eigenvalues ---    1.18619   1.18663   1.22276   1.30218   1.30332
     Eigenvalues ---    1.34315   1.37262   1.38273   1.45859   1.47237
     Eigenvalues ---    1.49339   1.54179   1.56650   1.61797   1.63697
     Eigenvalues ---    1.65781   1.67139   1.69044   1.74056   1.79668
     Eigenvalues ---    1.80390
 Angle between quadratic step and forces=  59.41 degrees.
 Linear search not attempted -- first point.
 B after Tr=    -0.000000    0.001232    0.000003
         Rot=    1.000000   -0.000000   -0.000000   -0.000000 Ang=  -0.00 deg.
 Variable       Old X    -DE/DX   Delta X   Delta X   Delta X     New X
                                 (Linear)    (Quad)   (Total)
    X1        0.00000   0.00000   0.00000   0.00000   0.00000   0.00000
    Y1        1.13306   0.06290   0.00000   0.08114   0.08238   1.21544
    Z1        0.00012   0.00001   0.00000   0.00005   0.00006   0.00017
    X2       -2.22371  -0.01539   0.00000  -0.02600  -0.02600  -2.24970
    Y2        2.57745  -0.02436   0.00000   0.01231   0.01354   2.59099
    Z2        0.00009  -0.00001   0.00000   0.00003   0.00003   0.00013
    X3       -2.32281   0.00808   0.00000   0.00705   0.00705  -2.31576
    Y3        5.19822   0.00309   0.00000   0.01068   0.01191   5.21013
    Z3       -0.00000   0.00000   0.00000   0.00007   0.00008   0.00008
    X4        0.00000   0.00000   0.00000  -0.00000  -0.00000  -0.00000
    Y4        6.48155  -0.00680   0.00000   0.01152   0.01275   6.49430
    Z4        0.00002   0.00000   0.00000   0.00009   0.00010   0.00012
    X5        2.32281  -0.00808   0.00000  -0.00705  -0.00705   2.31577
    Y5        5.19822   0.00309   0.00000   0.01069   0.01192   5.21014
    Z5        0.00010   0.00000   0.00000   0.00008   0.00008   0.00018
    X6        2.22371   0.01539   0.00000   0.02600   0.02600   2.24971
    Y6        2.57746  -0.02437   0.00000   0.01231   0.01354   2.59100
    Z6        0.00017  -0.00000   0.00000   0.00004   0.00004   0.00021
    X7       -4.06867   0.00218   0.00000   0.00682   0.00682  -4.06185
    Y7        6.28856  -0.00404   0.00000  -0.01126  -0.01002   6.27853
    Z7       -0.00009   0.00000   0.00000   0.00009   0.00009   0.00001
    X8        0.00000  -0.00000   0.00000  -0.00001  -0.00001  -0.00000
    Y8        8.51685   0.00651   0.00000   0.02943   0.03067   8.54751
    Z8       -0.00002  -0.00000   0.00000   0.00010   0.00011   0.00009
    X9        4.06868  -0.00218   0.00000  -0.00683  -0.00683   4.06185
    Y9        6.28856  -0.00404   0.00000  -0.01125  -0.01002   6.27854
    Z9        0.00009   0.00000   0.00000   0.00010   0.00010   0.00020
   X10        6.89006   0.00573   0.00000  -0.00018  -0.00018   6.88988
   Y10        1.07825   0.00157   0.00000   0.00507   0.00630   1.08455
   Z10       -0.00003  -0.00000   0.00000  -0.00003  -0.00003  -0.00006
   X11        3.55423   0.00392   0.00000   0.01172   0.01172   3.56595
   Y11       -1.68120  -0.00732   0.00000   0.00705   0.00829  -1.67291
   Z11        0.00019  -0.00000   0.00000   0.00002   0.00002   0.00021
   X12        7.87745  -0.01526   0.00000  -0.02939  -0.02939   7.84805
   Y12       -1.39385   0.00114   0.00000  -0.00714  -0.00590  -1.39976
   Z12       -0.00021   0.00000   0.00000   0.00000   0.00001  -0.00020
   X13        8.55146  -0.01186   0.00000  -0.01717  -0.01717   8.53429
   Y13        3.14715  -0.00348   0.00000  -0.00676  -0.00553   3.14162
   Z13       -0.00009  -0.00000   0.00000  -0.00008  -0.00008  -0.00017
   X14       10.44864   0.00149   0.00000  -0.02603  -0.02603  10.42261
   Y14       -1.89030  -0.00332   0.00000  -0.01573  -0.01449  -1.90480
   Z14       -0.00040  -0.00000   0.00000  -0.00003  -0.00003  -0.00042
   X15       11.12403   0.00626   0.00000  -0.01186  -0.01186  11.11217
   Y15        2.65027  -0.00379   0.00000  -0.01616  -0.01492   2.63534
   Z15       -0.00032   0.00000   0.00000  -0.00009  -0.00009  -0.00041
   X16        7.85843   0.00041   0.00000  -0.01129  -0.01129   7.84715
   Y16        5.07337   0.00003   0.00000  -0.00498  -0.00375   5.06962
   Z16        0.00003   0.00000   0.00000  -0.00010  -0.00010  -0.00007
   X17       12.07457  -0.00196   0.00000  -0.02332  -0.02332  12.05124
   Y17        0.17102   0.00510   0.00000  -0.01245  -0.01122   0.15980
   Z17       -0.00045  -0.00000   0.00000  -0.00008  -0.00008  -0.00053
   X18       11.16338   0.00007   0.00000  -0.02772  -0.02772  11.13566
   Y18       -3.81417   0.00011   0.00000  -0.01610  -0.01487  -3.82904
   Z18       -0.00048  -0.00000   0.00000  -0.00002  -0.00002  -0.00050
   X19       12.44936  -0.00121   0.00000  -0.01508  -0.01508  12.43428
   Y19        4.22130  -0.00046   0.00000  -0.01766  -0.01643   4.20487
   Z19       -0.00037   0.00000   0.00000  -0.00012  -0.00012  -0.00049
   X20       14.10110   0.00071   0.00000  -0.02191  -0.02191  14.07919
   Y20       -0.13496  -0.00013   0.00000  -0.01666  -0.01543  -0.15039
   Z20       -0.00061   0.00000   0.00000  -0.00010  -0.00009  -0.00070
   X21       -6.89006  -0.00572   0.00000   0.00019   0.00019  -6.88987
   Y21        1.07825   0.00156   0.00000   0.00506   0.00630   1.08454
   Z21       -0.00004  -0.00001   0.00000  -0.00003  -0.00003  -0.00007
   X22       -3.55423  -0.00392   0.00000  -0.01171  -0.01171  -3.56594
   Y22       -1.68120  -0.00732   0.00000   0.00705   0.00828  -1.67292
   Z22        0.00004   0.00000   0.00000   0.00002   0.00003   0.00007
   X23       -7.87742   0.01524   0.00000   0.02938   0.02938  -7.84804
   Y23       -1.39386   0.00114   0.00000  -0.00714  -0.00591  -1.39977
   Z23       -0.00013   0.00000   0.00000   0.00001   0.00001  -0.00012
   X24       -8.55145   0.01185   0.00000   0.01717   0.01717  -8.53428
   Y24        3.14714  -0.00348   0.00000  -0.00676  -0.00553   3.14161
   Z24       -0.00009   0.00000   0.00000  -0.00007  -0.00006  -0.00015
   X25      -10.44864  -0.00147   0.00000   0.02603   0.02603 -10.42261
   Y25       -1.89032  -0.00331   0.00000  -0.01572  -0.01449  -1.90481
   Z25       -0.00020   0.00000   0.00000  -0.00000   0.00000  -0.00020
   X26      -11.12403  -0.00625   0.00000   0.01186   0.01186 -11.11217
   Y26        2.65025  -0.00379   0.00000  -0.01615  -0.01492   2.63533
   Z26       -0.00018   0.00000   0.00000  -0.00007  -0.00006  -0.00024
   X27       -7.85844  -0.00041   0.00000   0.01129   0.01129  -7.84715
   Y27        5.07337   0.00003   0.00000  -0.00498  -0.00375   5.06961
   Z27       -0.00004  -0.00000   0.00000  -0.00009  -0.00008  -0.00012
   X28      -12.07455   0.00194   0.00000   0.02332   0.02332 -12.05123
   Y28        0.17100   0.00510   0.00000  -0.01244  -0.01121   0.15979
   Z28       -0.00022  -0.00000   0.00000  -0.00005  -0.00004  -0.00027
   X29      -11.16337  -0.00007   0.00000   0.02772   0.02772 -11.13565
   Y29       -3.81418   0.00011   0.00000  -0.01611  -0.01487  -3.82906
   Z29       -0.00021  -0.00000   0.00000   0.00000   0.00001  -0.00020
   X30      -12.44935   0.00121   0.00000   0.01508   0.01508 -12.43427
   Y30        4.22128  -0.00046   0.00000  -0.01765  -0.01642   4.20486
   Z30       -0.00021   0.00000   0.00000  -0.00009  -0.00008  -0.00029
   X31      -14.10110  -0.00070   0.00000   0.02191   0.02191 -14.07918
   Y31       -0.13498  -0.00013   0.00000  -0.01666  -0.01542  -0.15040
   Z31       -0.00028   0.00000   0.00000  -0.00006  -0.00005  -0.00034
   X32       -4.28641  -0.00183   0.00000  -0.01055  -0.01055  -4.29697
   Y32        0.79232   0.02964   0.00000   0.03732   0.03855   0.83087
   Z32        0.00001   0.00000   0.00000   0.00002   0.00003   0.00003
   X33       -5.77623  -0.00926   0.00000   0.00421   0.00421  -5.77202
   Y33       -2.98454  -0.01223   0.00000  -0.01771  -0.01647  -3.00101
   Z33       -0.00007   0.00000   0.00000   0.00001   0.00001  -0.00006
   X34        4.28642   0.00183   0.00000   0.01055   0.01055   4.29697
   Y34        0.79231   0.02965   0.00000   0.03733   0.03856   0.83088
   Z34        0.00018   0.00000   0.00000   0.00001   0.00002   0.00020
   X35        5.77624   0.00926   0.00000  -0.00421  -0.00421   5.77203
   Y35       -2.98453  -0.01223   0.00000  -0.01771  -0.01648  -3.00101
   Z35       -0.00012   0.00001   0.00000   0.00005   0.00005  -0.00007
   X36        5.99067  -0.00109   0.00000  -0.03752  -0.03752   5.95315
   Y36       -5.71583   0.00600   0.00000  -0.00330  -0.00207  -5.71790
   Z36        0.00000   0.00000   0.00000   0.00006   0.00006   0.00006
   X37        6.99929  -0.00043   0.00000  -0.04345  -0.04346   6.95584
   Y37       -6.37421   0.00070   0.00000  -0.00373  -0.00249  -6.37670
   Z37       -1.68465   0.00001   0.00000  -0.00174  -0.00174  -1.68639
   X38        6.99851  -0.00043   0.00000  -0.04334  -0.04334   6.95517
   Y38       -6.37420   0.00070   0.00000  -0.00365  -0.00242  -6.37662
   Z38        1.68514  -0.00001   0.00000   0.00181   0.00181   1.68695
   X39        4.08858  -0.00122   0.00000  -0.04519  -0.04519   4.04339
   Y39       -6.50079  -0.00114   0.00000   0.00358   0.00481  -6.49598
   Z39       -0.00045  -0.00000   0.00000   0.00013   0.00014  -0.00031
   X40       -5.99065   0.00108   0.00000   0.03752   0.03752  -5.95313
   Y40       -5.71584   0.00600   0.00000  -0.00330  -0.00207  -5.71791
   Z40        0.00007   0.00000   0.00000  -0.00003  -0.00002   0.00005
   X41       -6.99837   0.00043   0.00000   0.04333   0.04333  -6.95505
   Y41       -6.37419   0.00070   0.00000  -0.00370  -0.00246  -6.37665
   Z41        1.68528  -0.00001   0.00000   0.00170   0.00170   1.68698
   X42       -6.99939   0.00043   0.00000   0.04348   0.04348  -6.95591
   Y42       -6.37424   0.00070   0.00000  -0.00369  -0.00245  -6.37669
   Z42       -1.68450   0.00001   0.00000  -0.00186  -0.00185  -1.68635
   X43       -4.08856   0.00122   0.00000   0.04519   0.04519  -4.04336
   Y43       -6.50080  -0.00114   0.00000   0.00358   0.00482  -6.49598
   Z43       -0.00050  -0.00000   0.00000   0.00005   0.00005  -0.00044
   X44        0.00001  -0.00000   0.00000  -0.00000  -0.00000   0.00001
   Y44       -2.12681  -0.03827   0.00000  -0.02179  -0.02056  -2.14737
   Z44        0.00028  -0.00000   0.00000   0.00003   0.00003   0.00031
         Item               Value     Threshold  Converged?
 Maximum Force            0.062902     0.000450     NO 
 RMS     Force            0.009070     0.000300     NO 
 Maximum Displacement     0.082376     0.001800     NO 
 RMS     Displacement     0.017512     0.001200     NO 
 Predicted change in Energy=-5.338853D-03
 GradGradGradGradGradGradGradGradGradGradGradGradGradGradGradGradGradGrad

 Unable to Open any file for archive entry.
 1\1\GINC-X11P1N5\Force\UPBE1PBE\GenECP\C22H17Co1N4\MAYUMIAO\17-Jul-202
 4\0\\# pbe1pbe em=gd3bj genecp g09default scf=(xqc,maxcycle=64) force 
 guess=read nosymm\\Title Card\\0,1\C,0.00000106,0.59958921,0.00006232\
 C,-1.17673491,1.36392896,0.00004873\C,-1.22917837,2.75077879,-0.000000
 29\C,0.00000039,3.42988689,0.00001179\C,1.22918052,2.75077863,0.000051
 31\C,1.17673738,1.36393234,0.00008935\H,-2.15304899,3.32776128,-0.0000
 4699\H,0.00000128,4.50692124,-0.00000977\H,2.15305194,3.32776244,0.000
 05025\C,3.64606329,0.57058566,-0.00001611\C,1.88081965,-0.88965146,0.0
 0009932\C,4.16856605,-0.73759421,-0.00011082\C,4.52523851,1.66540094,-
 0.00004724\C,5.52918245,-1.00030387,-0.00020928\C,5.88658226,1.4024616
 8,-0.00016881\H,4.1585046,2.68471399,0.00001461\C,6.38958602,0.0904984
 6,-0.00023894\H,5.90740625,-2.01837229,-0.00025156\H,6.58791667,2.2338
 1421,-0.00019687\H,7.46198162,-0.07141549,-0.00032107\C,-3.64606313,0.
 57058277,-0.00002169\C,-1.88081546,-0.88965102,0.00002284\C,-4.1685525
 6,-0.73759813,-0.00006844\C,-4.52523175,1.66539441,-0.00004709\C,-5.52
 918197,-1.00031258,-0.00010805\C,-5.88658525,1.40245276,-0.00009637\H,
 -4.1585047,2.68470929,-0.0000202\C,-6.38957687,0.09048884,-0.00011858\
 H,-5.90739944,-2.01837951,-0.00011148\H,-6.58791473,2.2338034,-0.00011
 003\H,-7.461979,-0.07142669,-0.00014916\N,-2.26827185,0.41927786,0.000
 00298\N,-3.05665118,-1.57935017,-0.00003962\N,2.26827559,0.41927417,0.
 00009527\N,3.05665362,-1.57934337,-0.00006354\C,3.17012624,-3.02468794
 ,0.00000076\H,3.70386585,-3.37308419,-0.89147589\H,3.70345058,-3.37308
 056,0.89173524\H,2.16358098,-3.4400704,-0.00023626\C,-3.1701161,-3.024
 69016,0.0000393\H,-3.70337937,-3.37307503,0.89181331\H,-3.70391587,-3.
 3731011,-0.89139804\H,-2.16357163,-3.44007267,-0.0002636\Co,0.00000635
 ,-1.12546036,0.00014843\\Version=ES64L-G16RevC.01\HF=-1212.1470095\S2=
 0.\S2-1=0.\S2A=0.\RMSD=6.931e-09\RMSF=9.070e-03\Dipole=-0.0000062,-1.3
 700271,-0.0000212\Quadrupole=12.9554626,7.742108,-20.6975707,-0.000028
 4,-0.0003298,-0.0002115\PG=C01 [X(C22H17Co1N4)]\\@
 The archive entry for this job was punched.


 EVERYBODY NEEDS BEAUTY AS WELL AS BREAD, PLACES TO PLAY IN AND PRAY IN,
 WHERE NATURE MAY HEAL AND CHEER AND GIVE STRENGTH TO BODY AND SOUL ALIKE.

                                    -- JOHN MUIR
 Job cpu time:       0 days  0 hours 26 minutes  3.1 seconds.
 Elapsed time:       0 days  0 hours  0 minutes 28.6 seconds.
 File lengths (MBytes):  RWF=    184 Int=      0 D2E=      0 Chk=    162 Scr=      1
 Normal termination of Gaussian 16 at Wed Jul 17 20:41:06 2024.
