 Entering Gaussian System, Link 0=g16
 Input=JOBS/4_B.gjf
 Output=JOBS/4_B.log
 Initial command:
 /data/app/gaussian/C01-avx2//g16/l1.exe "/tmp/Gau-2038771.inp" -scrdir="/tmp/"
 Entering Link 1 = /data/app/gaussian/C01-avx2//g16/l1.exe PID=   2038772.
  
 Copyright (c) 1988-2019, Gaussian, Inc.  All Rights Reserved.
  
 This is part of the Gaussian(R) 16 program.  It is based on
 the Gaussian(R) 09 system (copyright 2009, Gaussian, Inc.),
 the Gaussian(R) 03 system (copyright 2003, Gaussian, Inc.),
 the Gaussian(R) 98 system (copyright 1998, Gaussian, Inc.),
 the Gaussian(R) 94 system (copyright 1995, Gaussian, Inc.),
 the Gaussian 92(TM) system (copyright 1992, Gaussian, Inc.),
 the Gaussian 90(TM) system (copyright 1990, Gaussian, Inc.),
 the Gaussian 88(TM) system (copyright 1988, Gaussian, Inc.),
 the Gaussian 86(TM) system (copyright 1986, Carnegie Mellon
 University), and the Gaussian 82(TM) system (copyright 1983,
 Carnegie Mellon University). Gaussian is a federally registered
 trademark of Gaussian, Inc.
  
 This software contains proprietary and confidential information,
 including trade secrets, belonging to Gaussian, Inc.
  
 This software is provided under written license and may be
 used, copied, transmitted, or stored only in accord with that
 written license.
  
 The following legend is applicable only to US Government
 contracts under FAR:
  
                    RESTRICTED RIGHTS LEGEND
  
 Use, reproduction and disclosure by the US Government is
 subject to restrictions as set forth in subparagraphs (a)
 and (c) of the Commercial Computer Software - Restricted
 Rights clause in FAR 52.227-19.
  
 Gaussian, Inc.
 340 Quinnipiac St., Bldg. 40, Wallingford CT 06492
  
  
 ---------------------------------------------------------------
 Warning -- This program may not be used in any manner that
 competes with the business of Gaussian, Inc. or will provide
 assistance to any competitor of Gaussian, Inc.  The licensee
 of this program is prohibited from giving any competitor of
 Gaussian, Inc. access to this program.  By using this program,
 the user acknowledges that Gaussian, Inc. is engaged in the
 business of creating and licensing software in the field of
 computational chemistry and represents and warrants to the
 licensee that it is not a competitor of Gaussian, Inc. and that
 it will not use this program in any manner prohibited above.
 ---------------------------------------------------------------
  

 Cite this work as:
 Gaussian 16, Revision C.01,
 M. J. Frisch, G. W. Trucks, H. B. Schlegel, G. E. Scuseria, 
 M. A. Robb, J. R. Cheeseman, G. Scalmani, V. Barone, 
 G. A. Petersson, H. Nakatsuji, X. Li, M. Caricato, A. V. Marenich, 
 J. Bloino, B. G. Janesko, R. Gomperts, B. Mennucci, H. P. Hratchian, 
 J. V. Ortiz, A. F. Izmaylov, J. L. Sonnenberg, D. Williams-Young, 
 F. Ding, F. Lipparini, F. Egidi, J. Goings, B. Peng, A. Petrone, 
 T. Henderson, D. Ranasinghe, V. G. Zakrzewski, J. Gao, N. Rega, 
 G. Zheng, W. Liang, M. Hada, M. Ehara, K. Toyota, R. Fukuda, 
 J. Hasegawa, M. Ishida, T. Nakajima, Y. Honda, O. Kitao, H. Nakai, 
 T. Vreven, K. Throssell, J. A. Montgomery, Jr., J. E. Peralta, 
 F. Ogliaro, M. J. Bearpark, J. J. Heyd, E. N. Brothers, K. N. Kudin, 
 V. N. Staroverov, T. A. Keith, R. Kobayashi, J. Normand, 
 K. Raghavachari, A. P. Rendell, J. C. Burant, S. S. Iyengar, 
 J. Tomasi, M. Cossi, J. M. Millam, M. Klene, C. Adamo, R. Cammi, 
 J. W. Ochterski, R. L. Martin, K. Morokuma, O. Farkas, 
 J. B. Foresman, and D. J. Fox, Gaussian, Inc., Wallingford CT, 2019.
 
 ******************************************
 Gaussian 16:  ES64L-G16RevC.01  3-Jul-2019
                17-Jul-2024 
 ******************************************
 %chk=b.chk
 %nprocshared=56
 Will use up to   56 processors via shared memory.
 %mem=96gb
 ----------------------------------------------------------------------
 # pbe1pbe em=gd3bj genecp g09default scf=(xqc,maxcycle=64) force guess
 =read nosymm
 ----------------------------------------------------------------------
 1/10=7,30=1,38=1,158=3,167=1/1,3;
 2/12=2,15=1,17=6,18=5,40=1/2;
 3/5=7,11=2,16=1,17=8,25=1,27=10,30=1,71=1,74=-13,75=-4,116=-2,124=41,158=3/1,2,3;
 4/5=1,60=-1/1;
 5/5=2,7=64,8=3,13=1,38=6,87=10/2,8;
 6/7=2,8=2,9=2,10=2,28=1,87=10/1;
 7/29=1,30=1,87=10/1,2,3,16;
 1/10=7,30=1,158=3,167=1/3;
 99//99;
 Using 2006 physical constants.
 ----------
 Title Card
 ----------
 Symbolic Z-matrix:
 Charge =  0 Multiplicity = 3
 6                     0.        0.59959   0.00006 
 6                    -1.17673   1.36393   0.00005 
 6                    -1.22918   2.75078  0. 
 6                     0.        3.42989   0.00001 
 6                     1.22918   2.75078   0.00005 
 6                     1.17674   1.36393   0.00009 
 1                    -2.15305   3.32776  -0.00005 
 1                     0.        4.50692  -0.00001 
 1                     2.15305   3.32776   0.00005 
 6                     3.64606   0.57059  -0.00002 
 6                     1.88082  -0.88965   0.0001 
 6                     4.16857  -0.73759  -0.00011 
 6                     4.52524   1.6654   -0.00005 
 6                     5.52918  -1.0003   -0.00021 
 6                     5.88658   1.40246  -0.00017 
 1                     4.1585    2.68471   0.00001 
 6                     6.38959   0.0905   -0.00024 
 1                     5.90741  -2.01837  -0.00025 
 1                     6.58792   2.23381  -0.0002 
 1                     7.46198  -0.07142  -0.00032 
 6                    -3.64606   0.57058  -0.00002 
 6                    -1.88082  -0.88965   0.00002 
 6                    -4.16855  -0.7376   -0.00007 
 6                    -4.52523   1.66539  -0.00005 
 6                    -5.52918  -1.00031  -0.00011 
 6                    -5.88659   1.40245  -0.0001 
 1                    -4.1585    2.68471  -0.00002 
 6                    -6.38958   0.09049  -0.00012 
 1                    -5.9074   -2.01838  -0.00011 
 1                    -6.58791   2.2338   -0.00011 
 1                    -7.46198  -0.07143  -0.00015 
 7                    -2.26827   0.41928   0. 
 7                    -3.05665  -1.57935  -0.00004 
 7                     2.26828   0.41927   0.0001 
 7                     3.05665  -1.57934  -0.00006 
 6                     3.17013  -3.02469   0. 
 1                     3.70387  -3.37308  -0.89148 
 1                     3.70345  -3.37308   0.89174 
 1                     2.16358  -3.44007  -0.00024 
 6                    -3.17012  -3.02469   0.00004 
 1                    -3.70338  -3.37308   0.89181 
 1                    -3.70392  -3.3731   -0.8914 
 1                    -2.16357  -3.44007  -0.00026 
 27                    0.00001  -1.12546   0.00015 
 

 GradGradGradGradGradGradGradGradGradGradGradGradGradGradGradGradGradGrad
 Berny optimization.
 Initialization pass.
 Trust Radius=3.00D-01 FncErr=1.00D-07 GrdErr=1.00D-07 EigMax=2.50D+02 EigMin=1.00D-04
 Number of steps in this run=      2 maximum allowed number of steps=      2.
 GradGradGradGradGradGradGradGradGradGradGradGradGradGradGradGradGradGrad

                          Input orientation:                          
 ---------------------------------------------------------------------
 Center     Atomic      Atomic             Coordinates (Angstroms)
 Number     Number       Type             X           Y           Z
 ---------------------------------------------------------------------
      1          6           0        0.000001    0.599589    0.000062
      2          6           0       -1.176735    1.363929    0.000049
      3          6           0       -1.229178    2.750779   -0.000000
      4          6           0        0.000000    3.429887    0.000012
      5          6           0        1.229181    2.750779    0.000051
      6          6           0        1.176737    1.363932    0.000089
      7          1           0       -2.153049    3.327761   -0.000047
      8          1           0        0.000001    4.506921   -0.000010
      9          1           0        2.153052    3.327762    0.000050
     10          6           0        3.646063    0.570586   -0.000016
     11          6           0        1.880820   -0.889651    0.000099
     12          6           0        4.168566   -0.737594   -0.000111
     13          6           0        4.525239    1.665401   -0.000047
     14          6           0        5.529182   -1.000304   -0.000209
     15          6           0        5.886582    1.402462   -0.000169
     16          1           0        4.158505    2.684714    0.000015
     17          6           0        6.389586    0.090498   -0.000239
     18          1           0        5.907406   -2.018372   -0.000252
     19          1           0        6.587917    2.233814   -0.000197
     20          1           0        7.461982   -0.071415   -0.000321
     21          6           0       -3.646063    0.570583   -0.000022
     22          6           0       -1.880815   -0.889651    0.000023
     23          6           0       -4.168553   -0.737598   -0.000068
     24          6           0       -4.525232    1.665394   -0.000047
     25          6           0       -5.529182   -1.000313   -0.000108
     26          6           0       -5.886585    1.402453   -0.000096
     27          1           0       -4.158505    2.684709   -0.000020
     28          6           0       -6.389577    0.090489   -0.000119
     29          1           0       -5.907399   -2.018380   -0.000111
     30          1           0       -6.587915    2.233803   -0.000110
     31          1           0       -7.461979   -0.071427   -0.000149
     32          7           0       -2.268272    0.419278    0.000003
     33          7           0       -3.056651   -1.579350   -0.000040
     34          7           0        2.268276    0.419274    0.000095
     35          7           0        3.056654   -1.579343   -0.000064
     36          6           0        3.170126   -3.024688    0.000001
     37          1           0        3.703866   -3.373084   -0.891476
     38          1           0        3.703451   -3.373081    0.891735
     39          1           0        2.163581   -3.440070   -0.000236
     40          6           0       -3.170116   -3.024690    0.000039
     41          1           0       -3.703379   -3.373075    0.891813
     42          1           0       -3.703916   -3.373101   -0.891398
     43          1           0       -2.163572   -3.440073   -0.000264
     44         27           0        0.000006   -1.125460    0.000148
 ---------------------------------------------------------------------
                    Distance matrix (angstroms):
                    1          2          3          4          5
     1  C    0.000000
     2  C    1.403183   0.000000
     3  C    2.477599   1.387841   0.000000
     4  C    2.830298   2.377580   1.404303   0.000000
     5  C    2.477599   2.777009   2.458359   1.404305   0.000000
     6  C    1.403185   2.353472   2.777008   2.377578   1.387837
     7  H    3.475420   2.193132   1.089241   2.155470   3.431091
     8  H    3.907332   3.356056   2.143576   1.077034   2.143576
     9  H    3.475422   3.865763   3.431092   2.155472   1.089242
    10  C    3.646178   4.887615   5.340527   4.633506   3.254929
    11  C    2.399024   3.798324   4.787987   4.711252   3.698292
    12  C    4.377784   5.743574   6.426849   5.894475   4.561659
    13  C    4.649057   5.709937   5.855882   4.857076   3.470165
    14  C    5.755997   7.110480   7.729558   7.085086   5.706193
    15  C    5.941081   7.063422   7.242376   6.225938   4.848644
    16  H    4.651978   5.496295   5.388088   4.224741   2.930069
    17  C    6.409834   7.672733   8.069861   7.209599   5.805762
    18  H    6.461514   7.850160   8.583452   8.036229   6.680613
    19  H    6.787586   7.813227   7.834170   6.695613   5.383615
    20  H    7.492089   8.757148   9.137890   8.242590   6.841973
    21  C    3.646180   2.593642   3.254933   4.633508   5.340529
    22  C    2.399022   2.361007   3.698292   4.711250   4.787985
    23  C    4.377774   3.656144   4.561655   5.894469   6.426842
    24  C    4.649051   3.362040   3.470162   4.857073   5.855879
    25  C    5.756001   4.953124   5.706200   7.085092   7.729563
    26  C    5.941085   4.710008   4.848652   6.225944   7.242383
    27  H    4.651978   3.261198   2.930071   4.224743   5.388090
    28  C    6.409828   5.366132   5.805761   7.209596   8.069858
    29  H    6.461512   5.815428   6.680615   8.036229   8.583452
    30  H    6.787584   5.480652   5.383616   6.695614   7.834171
    31  H    7.492090   6.447057   6.841977   8.242593   9.137893
    32  N    2.275428   1.443544   2.552570   3.769460   4.203340
    33  N    3.753785   3.492417   4.699965   5.868183   6.092485
    34  N    2.275430   3.572180   4.203344   3.769464   2.552574
    35  N    3.753781   5.156009   6.092480   5.868178   4.699959
    36  C    4.815089   6.176986   7.260158   7.191052   6.092888
    37  H    5.504143   6.859619   7.913997   7.797037   6.664877
    38  H    5.503883   6.859342   7.913765   7.796863   6.664740
    39  H    4.582568   5.851164   7.059563   7.202596   6.260968
    40  C    4.815085   4.820119   6.092888   7.191050   7.260155
    41  H    5.503845   5.442277   6.664727   7.796834   7.913720
    42  H    5.504178   5.442497   6.664895   7.797067   7.914040
    43  H    4.582566   4.904312   6.260969   7.202596   7.059561
    44  Co   1.725050   2.753503   4.066463   4.555347   4.066460
                    6          7          8          9         10
     6  C    0.000000
     7  H    3.865760   0.000000
     8  H    3.356052   2.454800   0.000000
     9  H    2.193130   4.306101   2.454800   0.000000
    10  C    2.593640   6.421193   5.365492   3.135460   0.000000
    11  C    2.361011   5.835980   5.714934   4.226191   2.290934
    12  C    3.656153   7.515978   6.699394   4.537557   1.408667
    13  C    3.362044   6.882076   5.343408   2.896673   1.404126
    14  C    4.953119   8.817530   7.803933   5.489118   2.452312
    15  C    4.710002   8.266949   6.655036   4.200718   2.389967
    16  H    3.261196   6.344227   4.540219   2.106027   2.175347
    17  C    5.366137   9.135452   7.767341   5.331801   2.785211
    18  H    5.815429   9.672233   8.802096   6.532713   3.437495
    19  H    5.480653   8.809154   6.969049   4.567795   3.379472
    20  H    6.447055  10.198197   8.754560   6.303899   3.869548
    21  C    4.887618   3.135462   5.365496   6.421197   7.292126
    22  C    3.798324   4.226189   5.714933   5.835980   5.716527
    23  C    5.743566   4.537555   6.699390   7.515972   7.923356
    24  C    5.709933   2.896673   5.343408   6.882074   8.244311
    25  C    7.110486   5.489125   7.803941   8.817537   9.308751
    26  C    7.063428   4.200727   6.655045   8.266957   9.568876
    27  H    5.496295   2.106031   4.540223   6.344231   8.085839
    28  C    7.672729   5.331801   7.767341   9.135450  10.047117
    29  H    7.850161   6.532715   8.802098   9.672234   9.898050
    30  H    7.813226   4.567798   6.969053   8.809157  10.368250
    31  H    8.757150   6.303905   8.754566  10.198201  11.126580
    32  N    3.572179   2.910765   4.674815   5.292201   5.916270
    33  N    5.156015   4.989613   6.810714   7.156868   7.039077
    34  N    1.443549   5.292203   4.674818   2.910770   1.386071
    35  N    3.492414   7.156862   6.810708   4.989608   2.229260
    36  C    4.820123   8.287931   8.171587   6.433356   3.626639
    37  H    5.442480   8.944240   8.752589   6.935502   4.043584
    38  H    5.442298   8.944000   8.752438   6.935426   4.043639
    39  H    4.904315   8.027256   8.236246   6.767841   4.275876
    40  C    6.176985   6.433356   8.171586   8.287929   7.706251
    41  H    6.859297   6.935427   8.752412   8.943951   8.388214
    42  H    6.859666   6.935507   8.752618   8.944290   8.388648
    43  H    5.851165   6.767842   8.236247   8.027256   7.059549
    44  Co   2.753502   4.946396   5.632382   4.946392   4.021232
                   11         12         13         14         15
    11  C    0.000000
    12  C    2.292794   0.000000
    13  C    3.677124   2.429321   0.000000
    14  C    3.650040   1.385747   2.848488   0.000000
    15  C    4.615183   2.744343   1.386504   2.429201   0.000000
    16  H    4.238389   3.422323   1.083279   3.931681   2.151842
    17  C    4.614073   2.370373   2.440514   1.389296   1.405084
    18  H    4.181795   2.159620   3.934536   1.086056   3.420897
    19  H    5.649142   3.831778   2.139564   3.403004   1.087666
    20  H    5.640823   3.360116   3.411890   2.144422   2.157359
    21  C    5.716530   7.923368   8.244319   9.308749   9.568874
    22  C    3.761635   6.051292   6.896798   7.410824   8.098534
    23  C    6.051283   8.337119   9.019779   9.701293  10.280350
    24  C    6.896793   9.019782   9.050470  10.401788  10.415133
    25  C    7.410828   9.701306  10.401798  11.058364  11.665890
    26  C    8.098538  10.280363  10.415144  11.665890  11.773168
    27  H    7.017798   9.002903   8.743362  10.364874  10.126595
    28  C    8.328273  10.590567  11.027853  11.968569  12.346066
    29  H    7.869586  10.157041  11.063913  11.481807  12.280072
    30  H    9.026374  11.159350  11.127680  12.541272  12.502168
    31  H    9.378560  11.649608  12.112388  13.024327  13.429685
    32  N    4.350662   6.539972   6.906852   7.925623   8.213909
    33  N    4.985409   7.274085   8.247027   8.605338   9.427228
    34  N    1.365067   2.224736   2.578122   3.556503   3.749507
    35  N    1.363180   1.394593   3.561616   2.539426   4.110919
    36  C    2.494132   2.495532   4.881932   3.108581   5.194111
    37  H    3.207155   2.820689   5.182242   3.123495   5.325835
    38  H    3.206933   2.820906   5.182365   3.123929   5.326102
    39  H    2.566046   3.365017   5.625235   4.156890   6.108261
    40  C    5.483643   7.686811   9.011961   8.931738  10.080846
    41  H    6.176231   8.349180   9.689779   9.574233  10.750291
    42  H    6.176695   8.349626   9.690201   9.574680  10.750718
    43  H    4.781396   6.884719   8.414633   8.070374   9.394419
    44  Co   1.895538   4.186565   5.316637   5.530592   6.406416
                   16         17         18         19         20
    16  H    0.000000
    17  C    3.421649   0.000000
    18  H    5.017736   2.163292   0.000000
    19  H    2.470901   2.152472   4.306296   0.000000
    20  H    4.302233   1.084550   2.491454   2.465375   0.000000
    21  C    8.085841  10.047126   9.898054  10.368254  11.126582
    22  C    7.017797   8.328279   7.869588   9.026376   9.378559
    23  C    9.002894  10.590563  10.157033  11.159342  11.649598
    24  C    8.743357  11.027853  11.063909  11.127676  12.112382
    25  C   10.364878  11.968580  11.481812  12.541278  13.024330
    26  C   10.126600  12.346077  12.280077  12.502174  13.429688
    27  H    8.317009  10.862419  11.110425  10.755876  11.942861
    28  C   10.862413  12.779163  12.476501  13.153295  13.852505
    29  H   11.110424  12.476507  11.814806  13.199018  13.510404
    30  H   10.755875  13.153299  13.199017  13.175831  14.237753
    31  H   11.942862  13.852511  13.510406  14.237756  14.923961
    32  N    6.814371   8.664098   8.531345   9.040167   9.742618
    33  N    8.380973   9.592695   8.974802  10.371013  10.626171
    34  N    2.950455   4.134404   4.380113   4.685281   5.216834
    35  N    4.404119   3.727843   2.884361   5.197114   4.656260
    36  C    5.794322   4.479878   2.916397   6.271614   5.209783
    37  H    6.139900   4.472561   2.735894   6.367844   5.081201
    38  H    6.139960   4.472954   2.736475   6.368120   5.081664
    39  H    6.441483   5.506726   4.004679   7.194978   6.278605
    40  C    9.290101  10.054467   9.133131  11.084722  11.034642
    41  H    9.965005  10.707943   9.746702  11.753453  11.677420
    42  H    9.965410  10.708383   9.747151  11.753874  11.677860
    43  H    8.802367   9.253185   8.195237  10.429839  10.197996
    44  Co   5.640083   6.504251   5.974501   7.394950   7.536052
                   21         22         23         24         25
    21  C    0.000000
    22  C    2.290935   0.000000
    23  C    1.408663   2.292785   0.000000
    24  C    1.404119   3.677118   2.429319   0.000000
    25  C    2.452315   3.650044   1.385760   2.848493   0.000000
    26  C    2.389968   4.615185   2.744349   1.386514   2.429201
    27  H    2.175345   4.238386   3.422322   1.083278   3.931684
    28  C    2.785203   4.614066   2.370375   2.440514   1.389290
    29  H    3.437494   4.181795   2.159627   3.934537   1.086052
    30  H    3.379466   5.649137   3.831780   2.139568   3.403002
    31  H    3.869546   5.640822   3.360125   3.411896   2.144419
    32  N    1.386074   1.365070   2.224731   2.578115   3.556511
    33  N    2.229264   1.363185   1.394586   3.561614   2.539428
    34  N    5.916274   4.350660   6.539963   6.906849   7.925627
    35  N    7.039076   4.985406   7.274073   8.247018   8.605338
    36  C    7.706258   5.483648   7.686806   9.011959   8.931744
    37  H    8.388603   6.176640   8.349573   9.690148   9.574641
    38  H    8.388269   6.176293   8.349222   9.689826   9.574284
    39  H    7.059554   4.781400   6.884713   8.414629   8.070379
    40  C    3.626639   2.494131   2.495529   4.881929   3.108584
    41  H    4.043648   3.206934   2.820918   5.182377   3.123953
    42  H    4.043580   3.207156   2.820679   5.182230   3.123479
    43  H    4.275879   2.566048   3.365014   5.625232   4.156893
    44  Co   4.021242   1.895547   4.186564   5.316639   5.530604
                   26         27         28         29         30
    26  C    0.000000
    27  H    2.151847   0.000000
    28  C    1.405080   3.421646   0.000000
    29  H    3.420896   5.017736   2.163289   0.000000
    30  H    1.087661   2.470900   2.152472   4.306293   0.000000
    31  H    2.157356   4.302235   1.084557   2.491454   2.465375
    32  N    3.749510   2.950451   4.134399   4.380117   4.685277
    33  N    4.110921   4.404121   3.727835   2.884356   5.197111
    34  N    8.213915   6.814375   8.664093   8.531343   9.040167
    35  N    9.427228   8.380970   9.592685   8.974798  10.371007
    36  C   10.080853   9.290105  10.054464   9.133134  11.084723
    37  H   10.750677   9.965361  10.708335   9.747111  11.753828
    38  H   10.750343   9.965058  10.707984   9.746745  11.753499
    39  H    9.394424   8.802369   9.253181   8.195238  10.429838
    40  C    5.194112   5.794321   4.479874   2.916399   6.271611
    41  H    5.326120   6.139972   4.472972   2.736500   6.368136
    42  H    5.325822   6.139892   4.472539   2.735873   6.367827
    43  H    6.108263   6.441484   5.506722   4.004680   7.194976
    44  Co   6.406427   5.640089   6.504253   5.974508   7.394955
                   31         32         33         34         35
    31  H    0.000000
    32  N    5.216837   0.000000
    33  N    4.656259   2.148501   0.000000
    34  N    9.742620   4.536547   5.687648   0.000000
    35  N   10.626168   5.687646   6.113305   2.148491   0.000000
    36  C   11.034646   6.437164   6.392320   3.560086   1.449792
    37  H   11.677821   7.130440   7.051009   4.151843   2.104995
    38  H   11.677465   7.130122   7.050653   4.151711   2.105028
    39  H   10.197998   5.876724   5.541940   3.860764   2.063949
    40  C    5.209784   3.560090   1.449787   6.437157   6.392315
    41  H    5.081688   4.151722   2.105020   7.130059   7.050600
    42  H    5.081183   4.151844   2.104997   7.130494   7.051053
    43  H    6.278606   3.860770   2.063948   5.876719   5.541937
    44  Co   7.536061   2.744322   3.090173   2.744312   3.090162
                   36         37         38         39         40
    36  C    0.000000
    37  H    1.095896   0.000000
    38  H    1.095903   1.783211   0.000000
    39  H    1.088888   1.780807   1.780814   0.000000
    40  C    6.340242   6.940303   6.939915   5.349847   0.000000
    41  H    6.939869   7.618885   7.406830   5.934767   1.095903
    42  H    6.940349   7.407782   7.618966   5.935164   1.095898
    43  H    5.349848   5.935113   5.934821   4.327153   1.088887
    44  Co   3.695501   4.423277   4.422920   3.168355   3.695504
                   41         42         43         44
    41  H    0.000000
    42  H    1.783211   0.000000
    43  H    1.780814   1.780805   0.000000
    44  Co   4.422884   4.423323   3.168359   0.000000
 Symmetry turned off by external request.
 Stoichiometry    C22H17CoN4(3)
 Framework group  C1[X(C22H17CoN4)]
 Deg. of freedom   126
 Full point group                 C1      NOp   1
 Rotational constants (GHZ):           0.4736003           0.1019668           0.0839918
 General basis read from cards:  (5D, 7F)
 ======================================================================================================
                                       Pseudopotential Parameters
 ======================================================================================================
  Center     Atomic      Valence      Angular      Power
  Number     Number     Electrons     Momentum     of R      Exponent        Coefficient   SO-Coeffient
 ======================================================================================================
    1          6
                                   No pseudopotential on this center.
    2          6
                                   No pseudopotential on this center.
    3          6
                                   No pseudopotential on this center.
    4          6
                                   No pseudopotential on this center.
    5          6
                                   No pseudopotential on this center.
    6          6
                                   No pseudopotential on this center.
    7          1
                                   No pseudopotential on this center.
    8          1
                                   No pseudopotential on this center.
    9          1
                                   No pseudopotential on this center.
   10          6
                                   No pseudopotential on this center.
   11          6
                                   No pseudopotential on this center.
   12          6
                                   No pseudopotential on this center.
   13          6
                                   No pseudopotential on this center.
   14          6
                                   No pseudopotential on this center.
   15          6
                                   No pseudopotential on this center.
   16          1
                                   No pseudopotential on this center.
   17          6
                                   No pseudopotential on this center.
   18          1
                                   No pseudopotential on this center.
   19          1
                                   No pseudopotential on this center.
   20          1
                                   No pseudopotential on this center.
   21          6
                                   No pseudopotential on this center.
   22          6
                                   No pseudopotential on this center.
   23          6
                                   No pseudopotential on this center.
   24          6
                                   No pseudopotential on this center.
   25          6
                                   No pseudopotential on this center.
   26          6
                                   No pseudopotential on this center.
   27          1
                                   No pseudopotential on this center.
   28          6
                                   No pseudopotential on this center.
   29          1
                                   No pseudopotential on this center.
   30          1
                                   No pseudopotential on this center.
   31          1
                                   No pseudopotential on this center.
   32          7
                                   No pseudopotential on this center.
   33          7
                                   No pseudopotential on this center.
   34          7
                                   No pseudopotential on this center.
   35          7
                                   No pseudopotential on this center.
   36          6
                                   No pseudopotential on this center.
   37          1
                                   No pseudopotential on this center.
   38          1
                                   No pseudopotential on this center.
   39          1
                                   No pseudopotential on this center.
   40          6
                                   No pseudopotential on this center.
   41          1
                                   No pseudopotential on this center.
   42          1
                                   No pseudopotential on this center.
   43          1
                                   No pseudopotential on this center.
   44         27           17
                                      F and up 
                                                     2        1.0000000        0.00000000    0.00000000
                                      S - F
                                                     2       23.6600000      283.96056600    0.00000000
                                                     2       10.6100000       47.15684600    0.00000000
                                      P - F
                                                     2       25.0400000      182.21223600    0.00000000
                                                     2       10.4400000       35.23335200    0.00000000
                                      D - F
                                                     2       29.5400000      -26.47533300    0.00000000
                                                     2       10.1800000       -1.82578700    0.00000000
 ======================================================================================================
   441 basis functions,   871 primitive gaussians,   473 cartesian basis functions
    98 alpha electrons       96 beta electrons
       nuclear repulsion energy      2506.1264039126 Hartrees.
 NAtoms=   44 NActive=   44 NUniq=   44 SFac= 1.00D+00 NAtFMM=   60 NAOKFM=F Big=F
 Integral buffers will be    131072 words long.
 Raffenetti 2 integral format.
 Two-electron integral symmetry is turned off.
 Nuclear repulsion after empirical dispersion term =     2506.0672605541 Hartrees.
 One-electron integrals computed using PRISM.
   1 Symmetry operations used in ECPInt.
 ECPInt:  NShTT=   11781 NPrTT=   71406 LenC2=    9568 LenP2D=   32169.
 LDataN:  DoStor=T MaxTD1= 6 Len=  172
 NBasis=   441 RedAO= T EigKep=  3.65D-04  NBF=   441
 NBsUse=   441 1.00D-06 EigRej= -1.00D+00 NBFU=   441
 Initial guess from the checkpoint file:  "b.chk"
 B after Tr=     0.000000    0.001170    0.000000
         Rot=    1.000000   -0.000000    0.000000   -0.000000 Ang=   0.00 deg.
 Initial guess <Sx>= 0.0000 <Sy>= 0.0000 <Sz>= 1.0000 <S**2>= 2.1097 S= 1.0361
 Requested convergence on RMS density matrix=1.00D-08 within  64 cycles.
 Requested convergence on MAX density matrix=1.00D-06.
 Requested convergence on             energy=1.00D-06.
 No special actions if energy rises.
 SCF Done:  E(UPBE1PBE) =  -1212.12290553     A.U. after   18 cycles
            NFock= 18  Conv=0.80D-08     -V/T= 2.0551
 <Sx>= 0.0000 <Sy>= 0.0000 <Sz>= 1.0000 <S**2>= 2.1030 S= 1.0340
 <L.S>=  0.00000000000    
 Annihilation of the first spin contaminant:
 S**2 before annihilation     2.1030,   after     2.0028
 QCSCF skips out because SCF is already converged.

 **********************************************************************

            Population analysis using the SCF Density.

 **********************************************************************

 Alpha  occ. eigenvalues --  -14.44891 -14.44891 -14.44422 -14.44421 -10.27145
 Alpha  occ. eigenvalues --  -10.27144 -10.27129 -10.27129 -10.26989 -10.26988
 Alpha  occ. eigenvalues --  -10.26851 -10.26851 -10.26420 -10.26420 -10.23624
 Alpha  occ. eigenvalues --  -10.23624 -10.23571 -10.23571 -10.23027 -10.23027
 Alpha  occ. eigenvalues --  -10.22940 -10.22940 -10.22716 -10.22530 -10.22524
 Alpha  occ. eigenvalues --  -10.19517  -3.93638  -2.47013  -2.43405  -2.42362
 Alpha  occ. eigenvalues --   -1.06142  -1.06042  -0.95784  -0.95230  -0.87940
 Alpha  occ. eigenvalues --   -0.87568  -0.85954  -0.79564  -0.78795  -0.77592
 Alpha  occ. eigenvalues --   -0.77476  -0.75847  -0.75082  -0.72985  -0.72867
 Alpha  occ. eigenvalues --   -0.66445  -0.65065  -0.64169  -0.63308  -0.62987
 Alpha  occ. eigenvalues --   -0.61108  -0.58710  -0.58259  -0.55898  -0.53809
 Alpha  occ. eigenvalues --   -0.53046  -0.51846  -0.49700  -0.49523  -0.49426
 Alpha  occ. eigenvalues --   -0.47763  -0.47414  -0.46917  -0.46519  -0.45719
 Alpha  occ. eigenvalues --   -0.45709  -0.44680  -0.44664  -0.44546  -0.43842
 Alpha  occ. eigenvalues --   -0.42038  -0.41896  -0.41805  -0.39630  -0.38974
 Alpha  occ. eigenvalues --   -0.38720  -0.38162  -0.37806  -0.37180  -0.36642
 Alpha  occ. eigenvalues --   -0.35864  -0.34898  -0.34479  -0.33398  -0.32763
 Alpha  occ. eigenvalues --   -0.32544  -0.31710  -0.29900  -0.27473  -0.26913
 Alpha  occ. eigenvalues --   -0.26522  -0.25945  -0.24646  -0.23433  -0.23008
 Alpha  occ. eigenvalues --   -0.21049  -0.20955  -0.09509
 Alpha virt. eigenvalues --   -0.05240  -0.01647   0.00017   0.00255   0.00411
 Alpha virt. eigenvalues --    0.02256   0.03125   0.03688   0.04889   0.05739
 Alpha virt. eigenvalues --    0.06768   0.07999   0.08034   0.09806   0.10197
 Alpha virt. eigenvalues --    0.12428   0.12827   0.13846   0.13962   0.15109
 Alpha virt. eigenvalues --    0.15233   0.15555   0.15834   0.16651   0.16892
 Alpha virt. eigenvalues --    0.16976   0.17641   0.17901   0.18415   0.18427
 Alpha virt. eigenvalues --    0.19256   0.19327   0.20045   0.20293   0.21067
 Alpha virt. eigenvalues --    0.21958   0.23344   0.23881   0.24409   0.24633
 Alpha virt. eigenvalues --    0.25767   0.25844   0.26854   0.27239   0.27271
 Alpha virt. eigenvalues --    0.27438   0.28259   0.29750   0.31119   0.31416
 Alpha virt. eigenvalues --    0.32462   0.33645   0.34667   0.34885   0.36569
 Alpha virt. eigenvalues --    0.37792   0.38136   0.39120   0.40130   0.40941
 Alpha virt. eigenvalues --    0.42191   0.45060   0.45275   0.46457   0.47072
 Alpha virt. eigenvalues --    0.49226   0.50389   0.51334   0.51642   0.53633
 Alpha virt. eigenvalues --    0.54011   0.54206   0.55964   0.56461   0.56518
 Alpha virt. eigenvalues --    0.56648   0.57172   0.57846   0.57879   0.58626
 Alpha virt. eigenvalues --    0.58735   0.59972   0.60078   0.60872   0.61360
 Alpha virt. eigenvalues --    0.61598   0.61754   0.62905   0.62973   0.63037
 Alpha virt. eigenvalues --    0.63587   0.63616   0.64258   0.64314   0.64789
 Alpha virt. eigenvalues --    0.65062   0.65795   0.66118   0.66808   0.67453
 Alpha virt. eigenvalues --    0.67754   0.68455   0.68804   0.71032   0.71614
 Alpha virt. eigenvalues --    0.71822   0.74010   0.75365   0.76633   0.77144
 Alpha virt. eigenvalues --    0.78194   0.78710   0.80308   0.80853   0.81458
 Alpha virt. eigenvalues --    0.81945   0.82730   0.83449   0.83977   0.84400
 Alpha virt. eigenvalues --    0.85341   0.85436   0.85759   0.86912   0.87193
 Alpha virt. eigenvalues --    0.87458   0.87577   0.89321   0.91188   0.91329
 Alpha virt. eigenvalues --    0.91488   0.91654   0.91704   0.93093   0.93191
 Alpha virt. eigenvalues --    0.93433   0.94439   0.95758   0.95849   0.96667
 Alpha virt. eigenvalues --    0.97301   0.97453   0.98441   0.98485   0.98582
 Alpha virt. eigenvalues --    0.99912   1.00340   1.01535   1.02391   1.03512
 Alpha virt. eigenvalues --    1.03988   1.05210   1.05876   1.07474   1.07586
 Alpha virt. eigenvalues --    1.08980   1.09079   1.10622   1.10730   1.14007
 Alpha virt. eigenvalues --    1.15399   1.15773   1.16892   1.17910   1.18570
 Alpha virt. eigenvalues --    1.18927   1.21827   1.23580   1.23747   1.24382
 Alpha virt. eigenvalues --    1.25336   1.26465   1.27391   1.29171   1.29395
 Alpha virt. eigenvalues --    1.29767   1.30240   1.31801   1.33265   1.33474
 Alpha virt. eigenvalues --    1.34561   1.37428   1.37822   1.38130   1.38866
 Alpha virt. eigenvalues --    1.40308   1.41341   1.42068   1.42387   1.45063
 Alpha virt. eigenvalues --    1.45729   1.45941   1.46815   1.47023   1.48177
 Alpha virt. eigenvalues --    1.48881   1.48990   1.49585   1.50391   1.50417
 Alpha virt. eigenvalues --    1.50866   1.53237   1.55498   1.57747   1.58030
 Alpha virt. eigenvalues --    1.59774   1.60855   1.63744   1.65328   1.67021
 Alpha virt. eigenvalues --    1.67466   1.72378   1.74047   1.74505   1.78291
 Alpha virt. eigenvalues --    1.79671   1.80173   1.80229   1.80641   1.83701
 Alpha virt. eigenvalues --    1.83878   1.85442   1.85895   1.86850   1.87883
 Alpha virt. eigenvalues --    1.88479   1.89580   1.89939   1.91038   1.93194
 Alpha virt. eigenvalues --    1.94028   1.96039   1.96499   1.96526   1.97291
 Alpha virt. eigenvalues --    1.97788   1.98908   1.99074   1.99429   1.99791
 Alpha virt. eigenvalues --    1.99821   2.00986   2.01890   2.03905   2.04845
 Alpha virt. eigenvalues --    2.09313   2.10538   2.11500   2.13164   2.14445
 Alpha virt. eigenvalues --    2.14745   2.14767   2.15692   2.16686   2.17232
 Alpha virt. eigenvalues --    2.17987   2.18415   2.19705   2.20208   2.20810
 Alpha virt. eigenvalues --    2.21837   2.22256   2.24686   2.24730   2.25098
 Alpha virt. eigenvalues --    2.25217   2.25978   2.28103   2.28190   2.28225
 Alpha virt. eigenvalues --    2.28755   2.28765   2.28961   2.30415   2.31703
 Alpha virt. eigenvalues --    2.36035   2.38139   2.39488   2.40198   2.41403
 Alpha virt. eigenvalues --    2.41607   2.42727   2.45785   2.46181   2.48301
 Alpha virt. eigenvalues --    2.49525   2.52536   2.55925   2.56174   2.56262
 Alpha virt. eigenvalues --    2.58354   2.58501   2.61662   2.62980   2.64171
 Alpha virt. eigenvalues --    2.66743   2.66747   2.67604   2.68499   2.71070
 Alpha virt. eigenvalues --    2.71971   2.72309   2.72716   2.73821   2.74486
 Alpha virt. eigenvalues --    2.74988   2.77553   2.77956   2.78683   2.84543
 Alpha virt. eigenvalues --    2.85410   2.86556   2.88049   2.91518   2.94936
 Alpha virt. eigenvalues --    2.95224   2.97238   2.98452   3.04537   3.05023
 Alpha virt. eigenvalues --    3.09273   3.10458   3.16827   3.19381   3.20630
 Alpha virt. eigenvalues --    3.23496   3.37332   3.42820   3.43975   3.48473
 Alpha virt. eigenvalues --    3.50749   3.64255   5.55889   5.56287   5.58159
 Alpha virt. eigenvalues --    5.60861   5.61491   5.64934   5.65154  45.69867
 Alpha virt. eigenvalues --   45.97367  46.01796  63.00693
  Beta  occ. eigenvalues --  -14.44756 -14.44756 -14.44394 -14.44393 -10.27153
  Beta  occ. eigenvalues --  -10.27152 -10.27139 -10.27139 -10.26882 -10.26882
  Beta  occ. eigenvalues --  -10.26809 -10.26808 -10.26210 -10.26210 -10.23574
  Beta  occ. eigenvalues --  -10.23574 -10.23538 -10.23538 -10.23022 -10.23022
  Beta  occ. eigenvalues --  -10.22918 -10.22917 -10.22665 -10.22659 -10.22449
  Beta  occ. eigenvalues --  -10.19753  -3.87510  -2.39572  -2.38507  -2.34960
  Beta  occ. eigenvalues --   -1.05939  -1.05841  -0.95557  -0.95002  -0.87859
  Beta  occ. eigenvalues --   -0.87493  -0.85829  -0.79433  -0.78694  -0.77524
  Beta  occ. eigenvalues --   -0.77395  -0.75704  -0.74890  -0.72941  -0.72863
  Beta  occ. eigenvalues --   -0.66442  -0.64760  -0.63969  -0.63295  -0.62877
  Beta  occ. eigenvalues --   -0.61014  -0.58647  -0.58115  -0.55844  -0.53741
  Beta  occ. eigenvalues --   -0.53000  -0.51744  -0.49721  -0.49060  -0.48989
  Beta  occ. eigenvalues --   -0.47602  -0.47378  -0.46874  -0.46481  -0.45685
  Beta  occ. eigenvalues --   -0.45672  -0.44639  -0.44615  -0.44109  -0.43543
  Beta  occ. eigenvalues --   -0.41998  -0.41883  -0.41792  -0.39596  -0.38676
  Beta  occ. eigenvalues --   -0.38324  -0.37894  -0.37162  -0.36951  -0.36186
  Beta  occ. eigenvalues --   -0.35837  -0.34411  -0.34319  -0.32758  -0.32632
  Beta  occ. eigenvalues --   -0.31227  -0.29440  -0.26200  -0.26162  -0.25296
  Beta  occ. eigenvalues --   -0.25022  -0.24046  -0.22302  -0.21414  -0.20664
  Beta  occ. eigenvalues --   -0.20024
  Beta virt. eigenvalues --   -0.04840  -0.03903  -0.01833  -0.00122   0.00318
  Beta virt. eigenvalues --    0.01303   0.01852   0.02439   0.03833   0.05891
  Beta virt. eigenvalues --    0.06096   0.06290   0.08337   0.08947   0.09412
  Beta virt. eigenvalues --    0.10224   0.10688   0.12589   0.12887   0.14100
  Beta virt. eigenvalues --    0.14144   0.15249   0.15556   0.15996   0.16096
  Beta virt. eigenvalues --    0.16793   0.17023   0.17405   0.17700   0.18019
  Beta virt. eigenvalues --    0.18861   0.19293   0.19409   0.20110   0.20551
  Beta virt. eigenvalues --    0.20808   0.22120   0.23428   0.23614   0.24148
  Beta virt. eigenvalues --    0.24494   0.24826   0.25771   0.25945   0.27310
  Beta virt. eigenvalues --    0.27315   0.27766   0.28119   0.29521   0.30312
  Beta virt. eigenvalues --    0.31454   0.31646   0.32590   0.34025   0.34890
  Beta virt. eigenvalues --    0.34948   0.36774   0.38041   0.38305   0.39293
  Beta virt. eigenvalues --    0.40215   0.41108   0.42708   0.45335   0.45688
  Beta virt. eigenvalues --    0.46728   0.47380   0.49523   0.50653   0.51715
  Beta virt. eigenvalues --    0.51735   0.53704   0.54108   0.54334   0.56101
  Beta virt. eigenvalues --    0.56513   0.56693   0.56823   0.57173   0.58014
  Beta virt. eigenvalues --    0.58027   0.58781   0.58949   0.60061   0.60154
  Beta virt. eigenvalues --    0.60986   0.61403   0.61867   0.61904   0.62988
  Beta virt. eigenvalues --    0.63091   0.63113   0.63691   0.63727   0.64328
  Beta virt. eigenvalues --    0.64375   0.64924   0.64979   0.66013   0.66165
  Beta virt. eigenvalues --    0.67432   0.67850   0.67851   0.68670   0.69009
  Beta virt. eigenvalues --    0.71013   0.71840   0.72296   0.74553   0.75556
  Beta virt. eigenvalues --    0.76709   0.77231   0.78650   0.79050   0.80770
  Beta virt. eigenvalues --    0.80968   0.81667   0.82149   0.82860   0.83806
  Beta virt. eigenvalues --    0.84336   0.84465   0.85521   0.85686   0.85932
  Beta virt. eigenvalues --    0.86940   0.87211   0.87616   0.87826   0.89416
  Beta virt. eigenvalues --    0.91339   0.91543   0.91621   0.91805   0.91838
  Beta virt. eigenvalues --    0.93267   0.93467   0.93800   0.94525   0.95850
  Beta virt. eigenvalues --    0.96944   0.97148   0.97366   0.97495   0.98490
  Beta virt. eigenvalues --    0.98632   0.98893   1.00052   1.00355   1.01675
  Beta virt. eigenvalues --    1.02459   1.03565   1.04061   1.05315   1.05914
  Beta virt. eigenvalues --    1.07579   1.08809   1.09107   1.10787   1.10985
  Beta virt. eigenvalues --    1.14151   1.15118   1.15508   1.15878   1.16928
  Beta virt. eigenvalues --    1.17998   1.18612   1.18992   1.21942   1.23806
  Beta virt. eigenvalues --    1.23939   1.24500   1.25390   1.26708   1.27602
  Beta virt. eigenvalues --    1.29474   1.29636   1.30174   1.30441   1.32119
  Beta virt. eigenvalues --    1.33594   1.33760   1.35207   1.37728   1.38140
  Beta virt. eigenvalues --    1.38268   1.39082   1.40592   1.41452   1.42543
  Beta virt. eigenvalues --    1.42831   1.45149   1.45829   1.46061   1.46966
  Beta virt. eigenvalues --    1.47099   1.48279   1.49095   1.49301   1.49829
  Beta virt. eigenvalues --    1.50523   1.50561   1.51204   1.53543   1.56249
  Beta virt. eigenvalues --    1.57886   1.58393   1.59962   1.61635   1.64862
  Beta virt. eigenvalues --    1.65694   1.67535   1.67782   1.72541   1.74203
  Beta virt. eigenvalues --    1.74676   1.78358   1.79902   1.80450   1.80532
  Beta virt. eigenvalues --    1.80892   1.83772   1.83953   1.85625   1.86051
  Beta virt. eigenvalues --    1.86958   1.87951   1.88695   1.89777   1.89964
  Beta virt. eigenvalues --    1.91139   1.93261   1.94087   1.96091   1.96576
  Beta virt. eigenvalues --    1.96615   1.97486   1.97937   1.99051   1.99190
  Beta virt. eigenvalues --    1.99501   1.99994   2.00027   2.01036   2.01982
  Beta virt. eigenvalues --    2.04144   2.05019   2.09352   2.10636   2.11789
  Beta virt. eigenvalues --    2.13313   2.14737   2.15003   2.15130   2.15844
  Beta virt. eigenvalues --    2.16813   2.17398   2.18302   2.18558   2.19951
  Beta virt. eigenvalues --    2.20323   2.21050   2.21980   2.22330   2.24833
  Beta virt. eigenvalues --    2.24845   2.25427   2.25493   2.26181   2.28247
  Beta virt. eigenvalues --    2.28351   2.28426   2.28790   2.29184   2.29256
  Beta virt. eigenvalues --    2.30691   2.31957   2.36439   2.38539   2.39660
  Beta virt. eigenvalues --    2.40375   2.41507   2.43110   2.43796   2.46237
  Beta virt. eigenvalues --    2.46360   2.49647   2.50937   2.52629   2.56334
  Beta virt. eigenvalues --    2.56438   2.56686   2.58388   2.58862   2.61751
  Beta virt. eigenvalues --    2.63327   2.64337   2.66786   2.66981   2.67696
  Beta virt. eigenvalues --    2.68673   2.71496   2.72098   2.72423   2.72760
  Beta virt. eigenvalues --    2.74205   2.74718   2.75038   2.77902   2.77970
  Beta virt. eigenvalues --    2.78812   2.84844   2.85497   2.86815   2.88164
  Beta virt. eigenvalues --    2.91643   2.95150   2.95313   2.97441   2.98615
  Beta virt. eigenvalues --    3.04993   3.05184   3.10920   3.11272   3.17061
  Beta virt. eigenvalues --    3.19903   3.20967   3.23533   3.38642   3.42938
  Beta virt. eigenvalues --    3.43999   3.48487   3.51155   3.66276   5.61527
  Beta virt. eigenvalues --    5.62784   5.63209   5.64663   5.65984   5.68135
  Beta virt. eigenvalues --    5.69160  45.79741  46.01739  46.09938  63.06233
          Condensed to atoms (all electrons):
               1          2          3          4          5          6
     1  C    5.318496   0.482942  -0.081725  -0.034514  -0.081726   0.482940
     2  C    0.482942   4.675463   0.538939   0.000462  -0.041093  -0.011864
     3  C   -0.081725   0.538939   5.036665   0.516688  -0.049453  -0.041093
     4  C   -0.034514   0.000462   0.516688   4.911761   0.516686   0.000462
     5  C   -0.081726  -0.041093  -0.049453   0.516686   5.036668   0.538941
     6  C    0.482940  -0.011864  -0.041093   0.000462   0.538941   4.675463
     7  H    0.003774  -0.034744   0.354559  -0.039387   0.004156   0.000212
     8  H    0.000946   0.003024  -0.036326   0.366776  -0.036326   0.003024
     9  H    0.003774   0.000212   0.004156  -0.039387   0.354559  -0.034744
    10  C    0.008251   0.000009  -0.000000   0.000099  -0.006710  -0.038485
    11  C    0.023235   0.004004  -0.000178   0.000020   0.004157  -0.072314
    12  C   -0.000891  -0.000001   0.000000  -0.000000   0.000149   0.006590
    13  C    0.000135   0.000003  -0.000002   0.000078   0.001335  -0.004855
    14  C   -0.000001  -0.000000   0.000000  -0.000000   0.000002  -0.000029
    15  C    0.000002  -0.000000   0.000000  -0.000001   0.000085   0.000059
    16  H   -0.000040   0.000001   0.000000   0.000126  -0.000132   0.000409
    17  C    0.000000   0.000000  -0.000000   0.000000  -0.000001  -0.000005
    18  H   -0.000000   0.000000   0.000000   0.000000  -0.000000   0.000002
    19  H   -0.000000   0.000000  -0.000000   0.000000   0.000002  -0.000002
    20  H   -0.000000  -0.000000   0.000000  -0.000000  -0.000000  -0.000000
    21  C    0.008251  -0.038485  -0.006710   0.000099  -0.000000   0.000009
    22  C    0.023235  -0.072315   0.004157   0.000020  -0.000178   0.004004
    23  C   -0.000891   0.006591   0.000149  -0.000000   0.000000  -0.000001
    24  C    0.000135  -0.004855   0.001335   0.000078  -0.000002   0.000003
    25  C   -0.000001  -0.000029   0.000002  -0.000000   0.000000  -0.000000
    26  C    0.000002   0.000059   0.000085  -0.000001   0.000000  -0.000000
    27  H   -0.000040   0.000409  -0.000132   0.000126   0.000000   0.000001
    28  C    0.000000  -0.000005  -0.000001   0.000000  -0.000000   0.000000
    29  H   -0.000000   0.000002  -0.000000   0.000000   0.000000   0.000000
    30  H   -0.000000  -0.000002   0.000002   0.000000  -0.000000   0.000000
    31  H   -0.000000  -0.000000  -0.000000  -0.000000   0.000000  -0.000000
    32  N   -0.034610   0.244650  -0.061781   0.003382   0.001287   0.006935
    33  N    0.000875   0.006541  -0.000152   0.000001   0.000000  -0.000058
    34  N   -0.034609   0.006935   0.001287   0.003382  -0.061781   0.244648
    35  N    0.000875  -0.000058   0.000000   0.000001  -0.000152   0.006541
    36  C   -0.000022   0.000000  -0.000000  -0.000000   0.000002  -0.000033
    37  H   -0.000000  -0.000000   0.000000   0.000000  -0.000000   0.000004
    38  H   -0.000000  -0.000000   0.000000   0.000000  -0.000000   0.000004
    39  H   -0.000021   0.000001   0.000000  -0.000000  -0.000000  -0.000017
    40  C   -0.000022  -0.000034   0.000002  -0.000000  -0.000000   0.000000
    41  H   -0.000000   0.000004  -0.000000   0.000000   0.000000  -0.000000
    42  H   -0.000000   0.000004  -0.000000   0.000000   0.000000  -0.000000
    43  H   -0.000021  -0.000017  -0.000000  -0.000000   0.000000   0.000001
    44  Co   0.249278  -0.074697   0.002723   0.002025   0.002723  -0.074696
               7          8          9         10         11         12
     1  C    0.003774   0.000946   0.003774   0.008251   0.023235  -0.000891
     2  C   -0.034744   0.003024   0.000212   0.000009   0.004004  -0.000001
     3  C    0.354559  -0.036326   0.004156  -0.000000  -0.000178   0.000000
     4  C   -0.039387   0.366776  -0.039387   0.000099   0.000020  -0.000000
     5  C    0.004156  -0.036326   0.354559  -0.006710   0.004157   0.000149
     6  C    0.000212   0.003024  -0.034744  -0.038485  -0.072314   0.006590
     7  H    0.535885  -0.004324  -0.000127  -0.000000  -0.000000   0.000000
     8  H   -0.004324   0.540300  -0.004324  -0.000001   0.000002  -0.000000
     9  H   -0.000127  -0.004324   0.535885   0.000284  -0.000142  -0.000029
    10  C   -0.000000  -0.000001   0.000284   4.647456  -0.077272   0.522955
    11  C   -0.000000   0.000002  -0.000142  -0.077272   4.819385  -0.056024
    12  C    0.000000  -0.000000  -0.000029   0.522955  -0.056024   4.656846
    13  C   -0.000000   0.000002   0.000209   0.523539   0.004922  -0.055130
    14  C   -0.000000   0.000000   0.000000  -0.050219   0.005788   0.530269
    15  C   -0.000000   0.000000   0.000125  -0.007648  -0.000087  -0.038402
    16  H   -0.000000  -0.000010   0.006287  -0.035508  -0.000158   0.003822
    17  C   -0.000000  -0.000000   0.000002  -0.039680  -0.000081  -0.006404
    18  H    0.000000  -0.000000  -0.000000   0.003885  -0.000216  -0.038867
    19  H    0.000000   0.000000  -0.000009   0.002067   0.000003   0.000921
    20  H   -0.000000  -0.000000   0.000000   0.000911   0.000003   0.002174
    21  C    0.000284  -0.000001  -0.000000  -0.000000  -0.000009   0.000000
    22  C   -0.000142   0.000002  -0.000000  -0.000009  -0.019849  -0.000003
    23  C   -0.000029  -0.000000   0.000000   0.000000  -0.000003  -0.000000
    24  C    0.000209   0.000002  -0.000000   0.000000   0.000000   0.000000
    25  C    0.000000   0.000000  -0.000000   0.000000   0.000000   0.000000
    26  C    0.000125   0.000000  -0.000000  -0.000000  -0.000000  -0.000000
    27  H    0.006287  -0.000010  -0.000000   0.000000   0.000000  -0.000000
    28  C    0.000002  -0.000000  -0.000000   0.000000  -0.000000  -0.000000
    29  H   -0.000000  -0.000000   0.000000   0.000000   0.000000  -0.000000
    30  H   -0.000009   0.000000   0.000000   0.000000   0.000000   0.000000
    31  H    0.000000  -0.000000  -0.000000   0.000000   0.000000   0.000000
    32  N   -0.004719  -0.000095   0.000007  -0.000000   0.000474   0.000000
    33  N    0.000003  -0.000000  -0.000000  -0.000000   0.000021   0.000000
    34  N    0.000007  -0.000095  -0.004719   0.271944   0.358537  -0.043334
    35  N   -0.000000  -0.000000   0.000003  -0.044029   0.317802   0.274457
    36  C   -0.000000   0.000000   0.000000   0.005913  -0.042882  -0.047594
    37  H    0.000000  -0.000000  -0.000000  -0.000144   0.000645  -0.001506
    38  H    0.000000  -0.000000  -0.000000  -0.000144   0.000642  -0.001502
    39  H    0.000000   0.000000   0.000000   0.000011  -0.000115   0.002680
    40  C    0.000000   0.000000  -0.000000   0.000000   0.000020   0.000000
    41  H   -0.000000  -0.000000   0.000000  -0.000000  -0.000000  -0.000000
    42  H   -0.000000  -0.000000   0.000000  -0.000000  -0.000000  -0.000000
    43  H    0.000000   0.000000   0.000000   0.000000  -0.000001  -0.000000
    44  Co  -0.000318   0.000188  -0.000318   0.006847   0.347576   0.005860
              13         14         15         16         17         18
     1  C    0.000135  -0.000001   0.000002  -0.000040   0.000000  -0.000000
     2  C    0.000003  -0.000000  -0.000000   0.000001   0.000000   0.000000
     3  C   -0.000002   0.000000   0.000000   0.000000  -0.000000   0.000000
     4  C    0.000078  -0.000000  -0.000001   0.000126   0.000000   0.000000
     5  C    0.001335   0.000002   0.000085  -0.000132  -0.000001  -0.000000
     6  C   -0.004855  -0.000029   0.000059   0.000409  -0.000005   0.000002
     7  H   -0.000000  -0.000000  -0.000000  -0.000000  -0.000000   0.000000
     8  H    0.000002   0.000000   0.000000  -0.000010  -0.000000  -0.000000
     9  H    0.000209   0.000000   0.000125   0.006287   0.000002  -0.000000
    10  C    0.523539  -0.050219  -0.007648  -0.035508  -0.039680   0.003885
    11  C    0.004922   0.005788  -0.000087  -0.000158  -0.000081  -0.000216
    12  C   -0.055130   0.530269  -0.038402   0.003822  -0.006404  -0.038867
    13  C    5.013090  -0.043678   0.521571   0.356087  -0.034794   0.000244
    14  C   -0.043678   5.023112  -0.039459   0.000458   0.521698   0.362229
    15  C    0.521571  -0.039459   4.899589  -0.037521   0.547979   0.004030
    16  H    0.356087   0.000458  -0.037521   0.524219   0.003782   0.000015
    17  C   -0.034794   0.521698   0.547979   0.003782   4.896734  -0.036697
    18  H    0.000244   0.362229   0.004030   0.000015  -0.036697   0.538452
    19  H   -0.036589   0.004086   0.368859  -0.004369  -0.036263  -0.000151
    20  H    0.003905  -0.036735  -0.035539  -0.000148   0.368409  -0.004316
    21  C    0.000000   0.000000  -0.000000   0.000000   0.000000   0.000000
    22  C    0.000000   0.000000  -0.000000   0.000000  -0.000000   0.000000
    23  C    0.000000   0.000000  -0.000000  -0.000000  -0.000000  -0.000000
    24  C    0.000000   0.000000  -0.000000   0.000000   0.000000   0.000000
    25  C    0.000000  -0.000000   0.000000  -0.000000  -0.000000   0.000000
    26  C   -0.000000   0.000000  -0.000000   0.000000   0.000000   0.000000
    27  H    0.000000  -0.000000   0.000000   0.000000   0.000000  -0.000000
    28  C    0.000000  -0.000000   0.000000   0.000000   0.000000   0.000000
    29  H    0.000000   0.000000   0.000000  -0.000000   0.000000  -0.000000
    30  H   -0.000000  -0.000000   0.000000  -0.000000   0.000000   0.000000
    31  H   -0.000000   0.000000   0.000000  -0.000000   0.000000   0.000000
    32  N   -0.000000   0.000000   0.000000   0.000000  -0.000000  -0.000000
    33  N    0.000000  -0.000000   0.000000   0.000000   0.000000  -0.000000
    34  N   -0.072677   0.009055   0.005035  -0.004349  -0.000201  -0.000092
    35  N    0.009294  -0.082266  -0.000113  -0.000106   0.005321  -0.006952
    36  C   -0.000123  -0.002564   0.000009   0.000003  -0.000120   0.003999
    37  H   -0.000009   0.002647  -0.000002  -0.000000  -0.000003   0.000554
    38  H   -0.000009   0.002645  -0.000002  -0.000000  -0.000003   0.000553
    39  H    0.000006   0.000038  -0.000000  -0.000000   0.000001  -0.000039
    40  C    0.000000   0.000000  -0.000000   0.000000   0.000000  -0.000000
    41  H    0.000000   0.000000  -0.000000   0.000000  -0.000000  -0.000000
    42  H    0.000000   0.000000  -0.000000   0.000000  -0.000000  -0.000000
    43  H    0.000000   0.000000  -0.000000   0.000000  -0.000000   0.000000
    44  Co  -0.000578  -0.000381   0.000019   0.000064  -0.000010   0.000007
              19         20         21         22         23         24
     1  C   -0.000000  -0.000000   0.008251   0.023235  -0.000891   0.000135
     2  C    0.000000  -0.000000  -0.038485  -0.072315   0.006591  -0.004855
     3  C   -0.000000   0.000000  -0.006710   0.004157   0.000149   0.001335
     4  C    0.000000  -0.000000   0.000099   0.000020  -0.000000   0.000078
     5  C    0.000002  -0.000000  -0.000000  -0.000178   0.000000  -0.000002
     6  C   -0.000002  -0.000000   0.000009   0.004004  -0.000001   0.000003
     7  H    0.000000  -0.000000   0.000284  -0.000142  -0.000029   0.000209
     8  H    0.000000  -0.000000  -0.000001   0.000002  -0.000000   0.000002
     9  H   -0.000009   0.000000  -0.000000  -0.000000   0.000000  -0.000000
    10  C    0.002067   0.000911  -0.000000  -0.000009   0.000000   0.000000
    11  C    0.000003   0.000003  -0.000009  -0.019849  -0.000003   0.000000
    12  C    0.000921   0.002174   0.000000  -0.000003  -0.000000   0.000000
    13  C   -0.036589   0.003905   0.000000   0.000000   0.000000   0.000000
    14  C    0.004086  -0.036735   0.000000   0.000000   0.000000   0.000000
    15  C    0.368859  -0.035539  -0.000000  -0.000000  -0.000000  -0.000000
    16  H   -0.004369  -0.000148   0.000000   0.000000  -0.000000   0.000000
    17  C   -0.036263   0.368409   0.000000  -0.000000  -0.000000   0.000000
    18  H   -0.000151  -0.004316   0.000000   0.000000  -0.000000   0.000000
    19  H    0.536232  -0.004410   0.000000   0.000000   0.000000  -0.000000
    20  H   -0.004410   0.536411   0.000000   0.000000   0.000000  -0.000000
    21  C    0.000000   0.000000   4.647447  -0.077271   0.522956   0.523540
    22  C    0.000000   0.000000  -0.077271   4.819383  -0.056025   0.004922
    23  C    0.000000   0.000000   0.522956  -0.056025   4.656855  -0.055130
    24  C   -0.000000  -0.000000   0.523540   0.004922  -0.055130   5.013098
    25  C   -0.000000   0.000000  -0.050218   0.005788   0.530266  -0.043678
    26  C    0.000000   0.000000  -0.007648  -0.000087  -0.038401   0.521567
    27  H   -0.000000  -0.000000  -0.035508  -0.000158   0.003822   0.356087
    28  C    0.000000   0.000000  -0.039680  -0.000081  -0.006405  -0.034794
    29  H    0.000000   0.000000   0.003885  -0.000216  -0.038867   0.000244
    30  H    0.000000   0.000000   0.002067   0.000003   0.000921  -0.036589
    31  H    0.000000   0.000000   0.000911   0.000003   0.002174   0.003905
    32  N   -0.000000   0.000000   0.271942   0.358538  -0.043334  -0.072679
    33  N   -0.000000  -0.000000  -0.044030   0.317800   0.274459   0.009294
    34  N   -0.000084   0.000004  -0.000000   0.000474   0.000000  -0.000000
    35  N    0.000003  -0.000096  -0.000000   0.000021   0.000000   0.000000
    36  C   -0.000000  -0.000001   0.000000   0.000020   0.000000   0.000000
    37  H   -0.000000  -0.000000  -0.000000  -0.000000  -0.000000   0.000000
    38  H   -0.000000  -0.000000  -0.000000  -0.000000  -0.000000   0.000000
    39  H   -0.000000  -0.000000   0.000000  -0.000001  -0.000000   0.000000
    40  C    0.000000  -0.000000   0.005913  -0.042882  -0.047594  -0.000123
    41  H   -0.000000   0.000000  -0.000144   0.000642  -0.001502  -0.000009
    42  H   -0.000000   0.000000  -0.000144   0.000645  -0.001506  -0.000009
    43  H    0.000000   0.000000   0.000011  -0.000115   0.002680   0.000006
    44  Co   0.000018  -0.000008   0.006847   0.347580   0.005859  -0.000578
              25         26         27         28         29         30
     1  C   -0.000001   0.000002  -0.000040   0.000000  -0.000000  -0.000000
     2  C   -0.000029   0.000059   0.000409  -0.000005   0.000002  -0.000002
     3  C    0.000002   0.000085  -0.000132  -0.000001  -0.000000   0.000002
     4  C   -0.000000  -0.000001   0.000126   0.000000   0.000000   0.000000
     5  C    0.000000   0.000000   0.000000  -0.000000   0.000000  -0.000000
     6  C   -0.000000  -0.000000   0.000001   0.000000   0.000000   0.000000
     7  H    0.000000   0.000125   0.006287   0.000002  -0.000000  -0.000009
     8  H    0.000000   0.000000  -0.000010  -0.000000  -0.000000   0.000000
     9  H   -0.000000  -0.000000  -0.000000  -0.000000   0.000000   0.000000
    10  C    0.000000  -0.000000   0.000000   0.000000   0.000000   0.000000
    11  C    0.000000  -0.000000   0.000000  -0.000000   0.000000   0.000000
    12  C    0.000000  -0.000000  -0.000000  -0.000000  -0.000000   0.000000
    13  C    0.000000  -0.000000   0.000000   0.000000   0.000000  -0.000000
    14  C   -0.000000   0.000000  -0.000000  -0.000000   0.000000  -0.000000
    15  C    0.000000  -0.000000   0.000000   0.000000   0.000000   0.000000
    16  H   -0.000000   0.000000   0.000000   0.000000  -0.000000  -0.000000
    17  C   -0.000000   0.000000   0.000000   0.000000   0.000000   0.000000
    18  H    0.000000   0.000000  -0.000000   0.000000  -0.000000   0.000000
    19  H   -0.000000   0.000000  -0.000000   0.000000   0.000000   0.000000
    20  H    0.000000   0.000000  -0.000000   0.000000   0.000000   0.000000
    21  C   -0.050218  -0.007648  -0.035508  -0.039680   0.003885   0.002067
    22  C    0.005788  -0.000087  -0.000158  -0.000081  -0.000216   0.000003
    23  C    0.530266  -0.038401   0.003822  -0.006405  -0.038867   0.000921
    24  C   -0.043678   0.521567   0.356087  -0.034794   0.000244  -0.036589
    25  C    5.023103  -0.039460   0.000458   0.521702   0.362230   0.004086
    26  C   -0.039460   4.899592  -0.037521   0.547981   0.004030   0.368859
    27  H    0.000458  -0.037521   0.524219   0.003782   0.000015  -0.004368
    28  C    0.521702   0.547981   0.003782   4.896730  -0.036698  -0.036263
    29  H    0.362230   0.004030   0.000015  -0.036698   0.538451  -0.000151
    30  H    0.004086   0.368859  -0.004368  -0.036263  -0.000151   0.536231
    31  H   -0.036735  -0.035540  -0.000148   0.368408  -0.004317  -0.004411
    32  N    0.009055   0.005035  -0.004349  -0.000201  -0.000092  -0.000084
    33  N   -0.082264  -0.000113  -0.000106   0.005321  -0.006952   0.000003
    34  N    0.000000   0.000000   0.000000  -0.000000  -0.000000  -0.000000
    35  N   -0.000000   0.000000   0.000000   0.000000  -0.000000  -0.000000
    36  C    0.000000  -0.000000   0.000000   0.000000  -0.000000   0.000000
    37  H    0.000000  -0.000000   0.000000  -0.000000  -0.000000  -0.000000
    38  H    0.000000  -0.000000   0.000000  -0.000000  -0.000000  -0.000000
    39  H    0.000000  -0.000000   0.000000  -0.000000   0.000000   0.000000
    40  C   -0.002564   0.000009   0.000003  -0.000120   0.003999  -0.000000
    41  H    0.002645  -0.000002  -0.000000  -0.000003   0.000553  -0.000000
    42  H    0.002647  -0.000002  -0.000000  -0.000003   0.000555  -0.000000
    43  H    0.000038  -0.000000  -0.000000   0.000001  -0.000039  -0.000000
    44  Co  -0.000381   0.000019   0.000064  -0.000010   0.000007   0.000018
              31         32         33         34         35         36
     1  C   -0.000000  -0.034610   0.000875  -0.034609   0.000875  -0.000022
     2  C   -0.000000   0.244650   0.006541   0.006935  -0.000058   0.000000
     3  C   -0.000000  -0.061781  -0.000152   0.001287   0.000000  -0.000000
     4  C   -0.000000   0.003382   0.000001   0.003382   0.000001  -0.000000
     5  C    0.000000   0.001287   0.000000  -0.061781  -0.000152   0.000002
     6  C   -0.000000   0.006935  -0.000058   0.244648   0.006541  -0.000033
     7  H    0.000000  -0.004719   0.000003   0.000007  -0.000000  -0.000000
     8  H   -0.000000  -0.000095  -0.000000  -0.000095  -0.000000   0.000000
     9  H   -0.000000   0.000007  -0.000000  -0.004719   0.000003   0.000000
    10  C    0.000000  -0.000000  -0.000000   0.271944  -0.044029   0.005913
    11  C    0.000000   0.000474   0.000021   0.358537   0.317802  -0.042882
    12  C    0.000000   0.000000   0.000000  -0.043334   0.274457  -0.047594
    13  C   -0.000000  -0.000000   0.000000  -0.072677   0.009294  -0.000123
    14  C    0.000000   0.000000  -0.000000   0.009055  -0.082266  -0.002564
    15  C    0.000000   0.000000   0.000000   0.005035  -0.000113   0.000009
    16  H   -0.000000   0.000000   0.000000  -0.004349  -0.000106   0.000003
    17  C    0.000000  -0.000000   0.000000  -0.000201   0.005321  -0.000120
    18  H    0.000000  -0.000000  -0.000000  -0.000092  -0.006952   0.003999
    19  H    0.000000  -0.000000  -0.000000  -0.000084   0.000003  -0.000000
    20  H    0.000000   0.000000  -0.000000   0.000004  -0.000096  -0.000001
    21  C    0.000911   0.271942  -0.044030  -0.000000  -0.000000   0.000000
    22  C    0.000003   0.358538   0.317800   0.000474   0.000021   0.000020
    23  C    0.002174  -0.043334   0.274459   0.000000   0.000000   0.000000
    24  C    0.003905  -0.072679   0.009294  -0.000000   0.000000   0.000000
    25  C   -0.036735   0.009055  -0.082264   0.000000  -0.000000   0.000000
    26  C   -0.035540   0.005035  -0.000113   0.000000   0.000000  -0.000000
    27  H   -0.000148  -0.004349  -0.000106   0.000000   0.000000   0.000000
    28  C    0.368408  -0.000201   0.005321  -0.000000   0.000000   0.000000
    29  H   -0.004317  -0.000092  -0.006952  -0.000000  -0.000000  -0.000000
    30  H   -0.004411  -0.000084   0.000003  -0.000000  -0.000000   0.000000
    31  H    0.536414   0.000004  -0.000096   0.000000  -0.000000  -0.000000
    32  N    0.000004   7.168484  -0.064436  -0.000260   0.000001  -0.000000
    33  N   -0.000096  -0.064436   7.073231   0.000001  -0.000000  -0.000000
    34  N    0.000000  -0.000260   0.000001   7.168485  -0.064437   0.005260
    35  N   -0.000000   0.000001  -0.000000  -0.064437   7.073239   0.295503
    36  C   -0.000000  -0.000000  -0.000000   0.005260   0.295503   5.046652
    37  H    0.000000   0.000000  -0.000000  -0.000066  -0.040929   0.378078
    38  H    0.000000   0.000000  -0.000000  -0.000066  -0.040934   0.378077
    39  H    0.000000  -0.000000   0.000001   0.000135  -0.032746   0.377834
    40  C   -0.000001   0.005260   0.295504  -0.000000  -0.000000   0.000000
    41  H   -0.000000  -0.000066  -0.040936   0.000000  -0.000000  -0.000000
    42  H   -0.000000  -0.000066  -0.040928   0.000000  -0.000000  -0.000000
    43  H   -0.000000   0.000135  -0.032746  -0.000000   0.000001  -0.000001
    44  Co  -0.000008  -0.086489  -0.050644  -0.086490  -0.050644  -0.002826
              37         38         39         40         41         42
     1  C   -0.000000  -0.000000  -0.000021  -0.000022  -0.000000  -0.000000
     2  C   -0.000000  -0.000000   0.000001  -0.000034   0.000004   0.000004
     3  C    0.000000   0.000000   0.000000   0.000002  -0.000000  -0.000000
     4  C    0.000000   0.000000  -0.000000  -0.000000   0.000000   0.000000
     5  C   -0.000000  -0.000000  -0.000000  -0.000000   0.000000   0.000000
     6  C    0.000004   0.000004  -0.000017   0.000000  -0.000000  -0.000000
     7  H    0.000000   0.000000   0.000000   0.000000  -0.000000  -0.000000
     8  H   -0.000000  -0.000000   0.000000   0.000000  -0.000000  -0.000000
     9  H   -0.000000  -0.000000   0.000000  -0.000000   0.000000   0.000000
    10  C   -0.000144  -0.000144   0.000011   0.000000  -0.000000  -0.000000
    11  C    0.000645   0.000642  -0.000115   0.000020  -0.000000  -0.000000
    12  C   -0.001506  -0.001502   0.002680   0.000000  -0.000000  -0.000000
    13  C   -0.000009  -0.000009   0.000006   0.000000   0.000000   0.000000
    14  C    0.002647   0.002645   0.000038   0.000000   0.000000   0.000000
    15  C   -0.000002  -0.000002  -0.000000  -0.000000  -0.000000  -0.000000
    16  H   -0.000000  -0.000000  -0.000000   0.000000   0.000000   0.000000
    17  C   -0.000003  -0.000003   0.000001   0.000000  -0.000000  -0.000000
    18  H    0.000554   0.000553  -0.000039  -0.000000  -0.000000  -0.000000
    19  H   -0.000000  -0.000000  -0.000000   0.000000  -0.000000  -0.000000
    20  H   -0.000000  -0.000000  -0.000000  -0.000000   0.000000   0.000000
    21  C   -0.000000  -0.000000   0.000000   0.005913  -0.000144  -0.000144
    22  C   -0.000000  -0.000000  -0.000001  -0.042882   0.000642   0.000645
    23  C   -0.000000  -0.000000  -0.000000  -0.047594  -0.001502  -0.001506
    24  C    0.000000   0.000000   0.000000  -0.000123  -0.000009  -0.000009
    25  C    0.000000   0.000000   0.000000  -0.002564   0.002645   0.002647
    26  C   -0.000000  -0.000000  -0.000000   0.000009  -0.000002  -0.000002
    27  H    0.000000   0.000000   0.000000   0.000003  -0.000000  -0.000000
    28  C   -0.000000  -0.000000  -0.000000  -0.000120  -0.000003  -0.000003
    29  H   -0.000000  -0.000000   0.000000   0.003999   0.000553   0.000555
    30  H   -0.000000  -0.000000   0.000000  -0.000000  -0.000000  -0.000000
    31  H    0.000000   0.000000   0.000000  -0.000001  -0.000000  -0.000000
    32  N    0.000000   0.000000  -0.000000   0.005260  -0.000066  -0.000066
    33  N   -0.000000  -0.000000   0.000001   0.295504  -0.040936  -0.040928
    34  N   -0.000066  -0.000066   0.000135  -0.000000   0.000000   0.000000
    35  N   -0.040929  -0.040934  -0.032746  -0.000000  -0.000000  -0.000000
    36  C    0.378078   0.378077   0.377834   0.000000  -0.000000  -0.000000
    37  H    0.522793  -0.040532  -0.024820  -0.000000  -0.000000   0.000000
    38  H   -0.040532   0.522792  -0.024827  -0.000000   0.000000  -0.000000
    39  H   -0.024820  -0.024827   0.482181  -0.000001   0.000000   0.000000
    40  C   -0.000000  -0.000000  -0.000001   5.046652   0.378077   0.378078
    41  H   -0.000000   0.000000   0.000000   0.378077   0.522793  -0.040532
    42  H    0.000000  -0.000000   0.000000   0.378078  -0.040532   0.522794
    43  H    0.000000   0.000000  -0.000024   0.377835  -0.024827  -0.024820
    44  Co   0.000971   0.000979   0.006753  -0.002826   0.000979   0.000971
              43         44
     1  C   -0.000021   0.249278
     2  C   -0.000017  -0.074697
     3  C   -0.000000   0.002723
     4  C   -0.000000   0.002025
     5  C    0.000000   0.002723
     6  C    0.000001  -0.074696
     7  H    0.000000  -0.000318
     8  H    0.000000   0.000188
     9  H    0.000000  -0.000318
    10  C    0.000000   0.006847
    11  C   -0.000001   0.347576
    12  C   -0.000000   0.005860
    13  C    0.000000  -0.000578
    14  C    0.000000  -0.000381
    15  C   -0.000000   0.000019
    16  H    0.000000   0.000064
    17  C   -0.000000  -0.000010
    18  H    0.000000   0.000007
    19  H    0.000000   0.000018
    20  H    0.000000  -0.000008
    21  C    0.000011   0.006847
    22  C   -0.000115   0.347580
    23  C    0.002680   0.005859
    24  C    0.000006  -0.000578
    25  C    0.000038  -0.000381
    26  C   -0.000000   0.000019
    27  H   -0.000000   0.000064
    28  C    0.000001  -0.000010
    29  H   -0.000039   0.000007
    30  H   -0.000000   0.000018
    31  H   -0.000000  -0.000008
    32  N    0.000135  -0.086489
    33  N   -0.032746  -0.050644
    34  N   -0.000000  -0.086490
    35  N    0.000001  -0.050644
    36  C   -0.000001  -0.002826
    37  H    0.000000   0.000971
    38  H    0.000000   0.000979
    39  H   -0.000024   0.006753
    40  C    0.377835  -0.002826
    41  H   -0.024827   0.000979
    42  H   -0.024820   0.000971
    43  H    0.482181   0.006753
    44  Co   0.006753  16.263665
          Atomic-Atomic Spin Densities.
               1          2          3          4          5          6
     1  C   -0.156472  -0.017429   0.002688   0.001860   0.002688  -0.017428
     2  C   -0.017429   0.158307   0.009864  -0.007436   0.001153   0.005705
     3  C    0.002688   0.009864  -0.103871  -0.008773   0.000887   0.001153
     4  C    0.001860  -0.007436  -0.008773   0.213586  -0.008773  -0.007436
     5  C    0.002688   0.001153   0.000887  -0.008773  -0.103868   0.009865
     6  C   -0.017428   0.005705   0.001153  -0.007436   0.009865   0.158301
     7  H   -0.000050  -0.000394   0.001691  -0.000093   0.000041  -0.000064
     8  H   -0.000061  -0.000002   0.000133  -0.000158   0.000133  -0.000002
     9  H   -0.000050  -0.000064   0.000041  -0.000093   0.001691  -0.000394
    10  C   -0.000160  -0.000023   0.000001   0.000010   0.000325  -0.000292
    11  C    0.005686  -0.001049  -0.000009   0.000042  -0.000269  -0.007200
    12  C    0.000019   0.000000  -0.000000  -0.000000  -0.000010   0.000062
    13  C    0.000023  -0.000000  -0.000000   0.000010  -0.000202  -0.000352
    14  C    0.000001   0.000000  -0.000000   0.000000  -0.000001  -0.000016
    15  C   -0.000000   0.000000   0.000000  -0.000000   0.000003   0.000010
    16  H   -0.000001  -0.000000  -0.000000   0.000000   0.000028   0.000037
    17  C   -0.000000  -0.000000   0.000000  -0.000000   0.000000   0.000001
    18  H    0.000000   0.000000  -0.000000   0.000000  -0.000000   0.000000
    19  H    0.000000   0.000000  -0.000000  -0.000000  -0.000000   0.000000
    20  H    0.000000   0.000000  -0.000000  -0.000000  -0.000000  -0.000000
    21  C   -0.000160  -0.000293   0.000325   0.000010   0.000001  -0.000023
    22  C    0.005686  -0.007201  -0.000269   0.000042  -0.000009  -0.001049
    23  C    0.000019   0.000062  -0.000010  -0.000000  -0.000000   0.000000
    24  C    0.000023  -0.000352  -0.000202   0.000010  -0.000000  -0.000000
    25  C    0.000001  -0.000016  -0.000001   0.000000  -0.000000   0.000000
    26  C   -0.000000   0.000010   0.000003  -0.000000   0.000000   0.000000
    27  H   -0.000001   0.000037   0.000028   0.000000  -0.000000  -0.000000
    28  C   -0.000000   0.000001   0.000000  -0.000000   0.000000  -0.000000
    29  H    0.000000   0.000000  -0.000000   0.000000  -0.000000   0.000000
    30  H    0.000000   0.000000  -0.000000  -0.000000  -0.000000   0.000000
    31  H    0.000000  -0.000000  -0.000000  -0.000000  -0.000000   0.000000
    32  N   -0.000921   0.011082   0.002478  -0.000052   0.000018   0.000009
    33  N   -0.000511   0.000474  -0.000004  -0.000000  -0.000000   0.000004
    34  N   -0.000920   0.000009   0.000018  -0.000052   0.002478   0.011081
    35  N   -0.000511   0.000004  -0.000000  -0.000000  -0.000004   0.000474
    36  C   -0.000006   0.000000  -0.000000   0.000000  -0.000000  -0.000006
    37  H    0.000001  -0.000000  -0.000000   0.000000  -0.000000  -0.000001
    38  H    0.000001  -0.000000  -0.000000   0.000000  -0.000000  -0.000001
    39  H    0.000009   0.000000   0.000000   0.000000   0.000000   0.000000
    40  C   -0.000006  -0.000006  -0.000000   0.000000  -0.000000   0.000000
    41  H    0.000001  -0.000001  -0.000000   0.000000  -0.000000  -0.000000
    42  H    0.000001  -0.000001  -0.000000   0.000000  -0.000000  -0.000000
    43  H    0.000009   0.000000   0.000000   0.000000   0.000000   0.000000
    44  Co   0.035431  -0.014007  -0.001717   0.002146  -0.001717  -0.014006
               7          8          9         10         11         12
     1  C   -0.000050  -0.000061  -0.000050  -0.000160   0.005686   0.000019
     2  C   -0.000394  -0.000002  -0.000064  -0.000023  -0.001049   0.000000
     3  C    0.001691   0.000133   0.000041   0.000001  -0.000009  -0.000000
     4  C   -0.000093  -0.000158  -0.000093   0.000010   0.000042  -0.000000
     5  C    0.000041   0.000133   0.001691   0.000325  -0.000269  -0.000010
     6  C   -0.000064  -0.000002  -0.000394  -0.000292  -0.007200   0.000062
     7  H    0.001368   0.000028  -0.000004  -0.000000   0.000000   0.000000
     8  H    0.000028  -0.010039   0.000028  -0.000000   0.000000   0.000000
     9  H   -0.000004   0.000028   0.001368  -0.000016   0.000009   0.000001
    10  C   -0.000000  -0.000000  -0.000016  -0.009709   0.001089  -0.001760
    11  C    0.000000   0.000000   0.000009   0.001089   0.169616  -0.000664
    12  C    0.000000   0.000000   0.000001  -0.001760  -0.000664  -0.023018
    13  C    0.000000  -0.000000   0.000019   0.002962   0.000305   0.000631
    14  C    0.000000   0.000000   0.000000   0.000632   0.000456   0.001626
    15  C    0.000000  -0.000000   0.000003  -0.000559  -0.000025   0.000125
    16  H   -0.000000  -0.000000  -0.000072  -0.000124  -0.000001  -0.000007
    17  C   -0.000000  -0.000000  -0.000000   0.000132  -0.000016  -0.000368
    18  H   -0.000000  -0.000000  -0.000000  -0.000007  -0.000001  -0.000060
    19  H   -0.000000  -0.000000  -0.000000   0.000003  -0.000000  -0.000006
    20  H    0.000000   0.000000   0.000000  -0.000007  -0.000000   0.000012
    21  C   -0.000016  -0.000000  -0.000000  -0.000000   0.000001  -0.000000
    22  C    0.000009   0.000000   0.000000   0.000001   0.001926   0.000000
    23  C    0.000001   0.000000   0.000000  -0.000000   0.000000   0.000000
    24  C    0.000019  -0.000000   0.000000   0.000000   0.000000   0.000000
    25  C    0.000000   0.000000   0.000000   0.000000   0.000000   0.000000
    26  C    0.000003  -0.000000   0.000000   0.000000  -0.000000  -0.000000
    27  H   -0.000072  -0.000000  -0.000000  -0.000000   0.000000   0.000000
    28  C   -0.000000  -0.000000  -0.000000  -0.000000  -0.000000   0.000000
    29  H   -0.000000  -0.000000  -0.000000   0.000000  -0.000000  -0.000000
    30  H   -0.000000  -0.000000  -0.000000  -0.000000  -0.000000   0.000000
    31  H    0.000000   0.000000   0.000000   0.000000  -0.000000  -0.000000
    32  N   -0.000124   0.000000  -0.000001  -0.000000  -0.000039  -0.000000
    33  N    0.000001   0.000000   0.000000   0.000000  -0.000006   0.000000
    34  N   -0.000001   0.000000  -0.000124   0.000843  -0.029115   0.001079
    35  N    0.000000   0.000000   0.000001  -0.000293  -0.040234   0.003517
    36  C    0.000000   0.000000  -0.000000  -0.000035   0.000437   0.000311
    37  H   -0.000000  -0.000000  -0.000000   0.000001   0.000385  -0.000070
    38  H   -0.000000  -0.000000  -0.000000   0.000001   0.000387  -0.000070
    39  H   -0.000000  -0.000000  -0.000000  -0.000000  -0.000426  -0.000039
    40  C   -0.000000   0.000000   0.000000   0.000000  -0.000001  -0.000000
    41  H   -0.000000  -0.000000  -0.000000   0.000000   0.000000   0.000000
    42  H   -0.000000  -0.000000  -0.000000   0.000000   0.000000   0.000000
    43  H   -0.000000  -0.000000  -0.000000  -0.000000   0.000002   0.000000
    44  Co   0.000180   0.000021   0.000180   0.000832   0.058429   0.000350
              13         14         15         16         17         18
     1  C    0.000023   0.000001  -0.000000  -0.000001  -0.000000   0.000000
     2  C   -0.000000   0.000000   0.000000  -0.000000  -0.000000   0.000000
     3  C   -0.000000  -0.000000   0.000000  -0.000000   0.000000  -0.000000
     4  C    0.000010   0.000000  -0.000000   0.000000  -0.000000   0.000000
     5  C   -0.000202  -0.000001   0.000003   0.000028   0.000000  -0.000000
     6  C   -0.000352  -0.000016   0.000010   0.000037   0.000001   0.000000
     7  H    0.000000   0.000000   0.000000  -0.000000  -0.000000  -0.000000
     8  H   -0.000000   0.000000  -0.000000  -0.000000  -0.000000  -0.000000
     9  H    0.000019   0.000000   0.000003  -0.000072  -0.000000  -0.000000
    10  C    0.002962   0.000632  -0.000559  -0.000124   0.000132  -0.000007
    11  C    0.000305   0.000456  -0.000025  -0.000001  -0.000016  -0.000001
    12  C    0.000631   0.001626   0.000125  -0.000007  -0.000368  -0.000060
    13  C    0.029601   0.001059  -0.009547   0.000163  -0.001555  -0.000006
    14  C    0.001059   0.044497  -0.001989  -0.000004  -0.008554   0.000066
    15  C   -0.009547  -0.001989   0.020948   0.000008   0.006675  -0.000005
    16  H    0.000163  -0.000004   0.000008  -0.001344  -0.000009  -0.000000
[...]
 
              Baa    -0.0050    -0.668    -0.238    -0.223 -0.0002 -0.0001  1.0000
    40 C(13)  Bbb    -0.0032    -0.436    -0.156    -0.145 -0.6454  0.7638 -0.0000
              Bcc     0.0082     1.104     0.394     0.368  0.7638  0.6454  0.0002
 
              Baa    -0.0036    -1.933    -0.690    -0.645 -0.0449  0.3518  0.9350
    41 H(1)   Bbb    -0.0023    -1.241    -0.443    -0.414  0.6777 -0.6769  0.2872
              Bcc     0.0059     3.174     1.133     1.059  0.7340  0.6466 -0.2080
 
              Baa    -0.0036    -1.932    -0.689    -0.644  0.0445 -0.3515  0.9351
    42 H(1)   Bbb    -0.0023    -1.241    -0.443    -0.414  0.6777 -0.6771 -0.2867
              Bcc     0.0059     3.173     1.132     1.058  0.7340  0.6465  0.2081
 
              Baa    -0.0066    -3.523    -1.257    -1.175 -0.0004  0.0001  1.0000
    43 H(1)   Bbb    -0.0054    -2.883    -1.029    -0.962  0.7840 -0.6208  0.0004
              Bcc     0.0120     6.406     2.286     2.137  0.6208  0.7840  0.0002
 
              Baa    -1.7454  -220.410   -78.648   -73.521  1.0000 -0.0000  0.0000
    44 Co(59) Bbb     0.5026    63.464    22.645    21.169  0.0000  1.0000 -0.0000
              Bcc     1.2429   156.946    56.002    52.352 -0.0000  0.0000  1.0000
 

 ---------------------------------------------------------------------------------

   1 Symmetry operations used in ECPInt.
 ECPInt:  NShTT=   11781 NPrTT=   71406 LenC2=    9568 LenP2D=   32169.
 LDataN:  DoStor=T MaxTD1= 7 Len=  274
 Calling FoFJK, ICntrl=      2127 FMM=F ISym2X=0 I1Cent= 0 IOpClX= 1 NMat=1 NMatS=1 NMatT=0.
 -------------------------------------------------------------------
 Center     Atomic                   Forces (Hartrees/Bohr)
 Number     Number              X              Y              Z
 -------------------------------------------------------------------
      1        6           0.000001356    0.084116133   -0.000018407
      2        6          -0.032006398   -0.031086430   -0.000003573
      3        6           0.005929461    0.000505654    0.000003471
      4        6          -0.000000057   -0.007678775   -0.000000169
      5        6          -0.005928090    0.000508048    0.000002972
      6        6           0.032005577   -0.031091235    0.000000532
      7        1           0.002308875   -0.004895917    0.000000331
      8        1          -0.000000075    0.006463458   -0.000000549
      9        1          -0.002309646   -0.004896310    0.000000121
     10        6           0.008624194    0.003496252   -0.000000493
     11        6           0.000312744   -0.010298135    0.000005387
     12        6          -0.017658896    0.000463464    0.000001642
     13        6          -0.014935338   -0.004418821   -0.000000042
     14        6           0.000573783   -0.004976113   -0.000000145
     15        6           0.009818672   -0.005827922   -0.000000003
     16        1           0.000502850    0.000119502    0.000000344
     17        6          -0.001577852    0.008621205   -0.000000343
     18        1          -0.000014581    0.000115336   -0.000000333
     19        1          -0.001179451   -0.000469779   -0.000000031
     20        1           0.000731823   -0.000098120    0.000000194
     21        6          -0.008616821    0.003495330   -0.000003906
     22        6          -0.000311969   -0.010298646    0.000012287
     23        6           0.017640333    0.000458784    0.000002323
     24        6           0.014922582   -0.004417470    0.000000978
     25        6          -0.000557851   -0.004974081    0.000000787
     26        6          -0.009805750   -0.005826522    0.000000252
     27        1          -0.000502173    0.000119562    0.000000012
     28        6           0.001566837    0.008621473   -0.000000759
     29        1           0.000013416    0.000113401   -0.000000462
     30        1           0.001177116   -0.000467936   -0.000000041
     31        1          -0.000727630   -0.000097581    0.000000187
     32        7           0.002379325    0.044918565    0.000002965
     33        7          -0.015275165   -0.017502734   -0.000005140
     34        7          -0.002380570    0.044925715    0.000000250
     35        7           0.015283145   -0.017510075   -0.000000158
     36        6          -0.001039761    0.008447682    0.000000247
     37        1          -0.000475089    0.000359637   -0.000190317
     38        1          -0.000475102    0.000361726    0.000188790
     39        1          -0.001173668   -0.001784347    0.000000154
     40        6           0.001037475    0.008444712    0.000000399
     41        1           0.000475024    0.000361079    0.000188650
     42        1           0.000475574    0.000360455   -0.000189551
     43        1           0.001174216   -0.001784002    0.000000284
     44       27          -0.000002448   -0.054996223    0.000000860
 -------------------------------------------------------------------
 Cartesian Forces:  Max     0.084116133 RMS     0.012779439

 GradGradGradGradGradGradGradGradGradGradGradGradGradGradGradGradGradGrad
 Berny optimization.
 Search for a local minimum.
 Step number   1 out of a maximum of    2
 All quantities printed in internal units (Hartrees-Bohrs-Radians)
 Second derivative matrix not updated -- first step.
 ITU=  0
     Eigenvalues ---    0.00054   0.00069   0.00191   0.00237   0.00239
     Eigenvalues ---    0.00384   0.00445   0.00527   0.00533   0.00609
     Eigenvalues ---    0.00662   0.00839   0.00862   0.01343   0.01588
     Eigenvalues ---    0.01868   0.01892   0.02008   0.02531   0.02532
     Eigenvalues ---    0.02985   0.03354   0.03989   0.04086   0.04397
     Eigenvalues ---    0.04477   0.04686   0.05400   0.05493   0.06532
     Eigenvalues ---    0.06583   0.06939   0.06996   0.07029   0.07034
     Eigenvalues ---    0.07082   0.07282   0.07676   0.07742   0.09691
     Eigenvalues ---    0.10309   0.10509   0.10643   0.11928   0.11994
     Eigenvalues ---    0.12080   0.12255   0.12688   0.12716   0.13339
     Eigenvalues ---    0.13369   0.13580   0.13617   0.14860   0.15775
     Eigenvalues ---    0.15804   0.16423   0.19276   0.20200   0.20548
     Eigenvalues ---    0.21777   0.22800   0.25048   0.26924   0.28911
     Eigenvalues ---    0.30029   0.30556   0.30873   0.32239   0.32405
     Eigenvalues ---    0.33643   0.34382   0.35896   0.37960   0.38695
     Eigenvalues ---    0.40299   0.41137   0.43461   0.47320   0.48571
     Eigenvalues ---    0.49227   0.49319   0.49531   0.51425   0.53071
     Eigenvalues ---    0.54544   0.54790   0.55694   0.66690   0.67428
     Eigenvalues ---    0.71632   0.73851   0.76119   0.83527   0.89642
     Eigenvalues ---    0.90896   0.92349   0.94219   0.95920   0.96023
     Eigenvalues ---    0.97948   1.06642   1.07310   1.13638   1.17359
     Eigenvalues ---    1.18619   1.18663   1.22276   1.30218   1.30332
     Eigenvalues ---    1.34315   1.37262   1.38273   1.45859   1.47237
     Eigenvalues ---    1.49339   1.54179   1.56650   1.61797   1.63697
     Eigenvalues ---    1.65781   1.67139   1.69044   1.74056   1.79668
     Eigenvalues ---    1.80390
 Angle between quadratic step and forces=  45.23 degrees.
 Linear search not attempted -- first point.
 B after Tr=    -0.000000    0.001807   -0.000002
         Rot=    1.000000    0.000000   -0.000000    0.000000 Ang=   0.00 deg.
 Variable       Old X    -DE/DX   Delta X   Delta X   Delta X     New X
                                 (Linear)    (Quad)   (Total)
    X1        0.00000   0.00000   0.00000   0.00000   0.00000   0.00000
    Y1        1.13306   0.08412   0.00000   0.10837   0.11017   1.24323
    Z1        0.00012  -0.00002   0.00000  -0.00007  -0.00007   0.00005
    X2       -2.22371  -0.03201   0.00000  -0.05966  -0.05966  -2.28337
    Y2        2.57745  -0.03109   0.00000   0.01049   0.01230   2.58975
    Z2        0.00009  -0.00000   0.00000  -0.00001  -0.00002   0.00008
    X3       -2.32281   0.00593   0.00000  -0.01096  -0.01096  -2.33377
    Y3        5.19822   0.00051   0.00000   0.00107   0.00287   5.20109
    Z3       -0.00000   0.00000   0.00000   0.00010   0.00009   0.00009
    X4        0.00000  -0.00000   0.00000  -0.00000  -0.00000  -0.00000
    Y4        6.48155  -0.00768   0.00000  -0.01327  -0.01146   6.47009
    Z4        0.00002  -0.00000   0.00000   0.00013   0.00013   0.00015
    X5        2.32281  -0.00593   0.00000   0.01096   0.01096   2.33377
    Y5        5.19822   0.00051   0.00000   0.00107   0.00288   5.20110
    Z5        0.00010   0.00000   0.00000   0.00009   0.00009   0.00019
    X6        2.22371   0.03201   0.00000   0.05966   0.05966   2.28337
    Y6        2.57746  -0.03109   0.00000   0.01049   0.01230   2.58976
    Z6        0.00017   0.00000   0.00000  -0.00001  -0.00001   0.00016
    X7       -4.06867   0.00231   0.00000  -0.00674  -0.00674  -4.07541
    Y7        6.28856  -0.00490   0.00000  -0.01679  -0.01498   6.27357
    Z7       -0.00009   0.00000   0.00000   0.00016   0.00016   0.00007
    X8        0.00000  -0.00000   0.00000  -0.00001  -0.00001  -0.00000
    Y8        8.51685   0.00646   0.00000   0.00451   0.00632   8.52316
    Z8       -0.00002  -0.00000   0.00000   0.00019   0.00019   0.00017
    X9        4.06868  -0.00231   0.00000   0.00673   0.00673   4.07541
    Y9        6.28856  -0.00490   0.00000  -0.01678  -0.01498   6.27358
    Z9        0.00009   0.00000   0.00000   0.00015   0.00015   0.00024
   X10        6.89006   0.00862   0.00000   0.02667   0.02667   6.91673
   Y10        1.07825   0.00350   0.00000   0.01509   0.01690   1.09515
   Z10       -0.00003  -0.00000   0.00000  -0.00003  -0.00003  -0.00006
   X11        3.55423   0.00031   0.00000   0.02996   0.02996   3.58420
   Y11       -1.68120  -0.01030   0.00000   0.00673   0.00853  -1.67267
   Z11        0.00019   0.00001   0.00000   0.00004   0.00004   0.00023
   X12        7.87745  -0.01766   0.00000  -0.00879  -0.00879   7.86866
   Y12       -1.39385   0.00046   0.00000  -0.00252  -0.00072  -1.39457
   Z12       -0.00021   0.00000   0.00000  -0.00002  -0.00002  -0.00023
   X13        8.55146  -0.01494   0.00000   0.01459   0.01459   8.56605
   Y13        3.14715  -0.00442   0.00000  -0.00328  -0.00147   3.14568
   Z13       -0.00009  -0.00000   0.00000  -0.00006  -0.00007  -0.00015
   X14       10.44864   0.00057   0.00000  -0.00498  -0.00498  10.44366
   Y14       -1.89030  -0.00498   0.00000  -0.01336  -0.01155  -1.90185
   Z14       -0.00040  -0.00000   0.00000  -0.00007  -0.00007  -0.00047
   X15       11.12403   0.00982   0.00000   0.02462   0.02461  11.14864
   Y15        2.65027  -0.00583   0.00000  -0.01648  -0.01468   2.63559
   Z15       -0.00032  -0.00000   0.00000  -0.00009  -0.00009  -0.00041
   X16        7.85843   0.00050   0.00000   0.02580   0.02580   7.88423
   Y16        5.07337   0.00012   0.00000   0.00058   0.00239   5.07576
   Z16        0.00003   0.00000   0.00000  -0.00005  -0.00006  -0.00003
   X17       12.07457  -0.00158   0.00000   0.00518   0.00518  12.07975
   Y17        0.17102   0.00862   0.00000  -0.01044  -0.00864   0.16238
   Z17       -0.00045  -0.00000   0.00000  -0.00010  -0.00010  -0.00056
   X18       11.16338  -0.00001   0.00000  -0.01067  -0.01067  11.15271
   Y18       -3.81417   0.00012   0.00000  -0.01513  -0.01332  -3.82749
   Z18       -0.00048  -0.00000   0.00000  -0.00008  -0.00009  -0.00056
   X19       12.44936  -0.00118   0.00000   0.02456   0.02456  12.47392
   Y19        4.22130  -0.00047   0.00000  -0.02061  -0.01881   4.20249
   Z19       -0.00037  -0.00000   0.00000  -0.00010  -0.00011  -0.00048
   X20       14.10110   0.00073   0.00000   0.00598   0.00598  14.10708
   Y20       -0.13496  -0.00010   0.00000  -0.01908  -0.01727  -0.15223
   Z20       -0.00061   0.00000   0.00000  -0.00013  -0.00013  -0.00074
   X21       -6.89006  -0.00862   0.00000  -0.02667  -0.02667  -6.91673
   Y21        1.07825   0.00350   0.00000   0.01509   0.01690   1.09514
   Z21       -0.00004  -0.00000   0.00000  -0.00003  -0.00003  -0.00007
   X22       -3.55423  -0.00031   0.00000  -0.02996  -0.02996  -3.58418
   Y22       -1.68120  -0.01030   0.00000   0.00672   0.00853  -1.67267
   Z22        0.00004   0.00001   0.00000   0.00006   0.00006   0.00011
   X23       -7.87742   0.01764   0.00000   0.00878   0.00878  -7.86865
   Y23       -1.39386   0.00046   0.00000  -0.00253  -0.00072  -1.39458
   Z23       -0.00013   0.00000   0.00000  -0.00002  -0.00002  -0.00015
   X24       -8.55145   0.01492   0.00000  -0.01460  -0.01460  -8.56605
   Y24        3.14714  -0.00442   0.00000  -0.00328  -0.00147   3.14567
   Z24       -0.00009   0.00000   0.00000  -0.00005  -0.00005  -0.00014
   X25      -10.44864  -0.00056   0.00000   0.00499   0.00499 -10.44365
   Y25       -1.89032  -0.00497   0.00000  -0.01335  -0.01155  -1.90186
   Z25       -0.00020   0.00000   0.00000  -0.00005  -0.00005  -0.00025
   X26      -11.12403  -0.00981   0.00000  -0.02461  -0.02461 -11.14864
   Y26        2.65025  -0.00583   0.00000  -0.01648  -0.01467   2.63558
   Z26       -0.00018   0.00000   0.00000  -0.00007  -0.00008  -0.00026
   X27       -7.85844  -0.00050   0.00000  -0.02580  -0.02580  -7.88423
   Y27        5.07337   0.00012   0.00000   0.00058   0.00238   5.07575
   Z27       -0.00004   0.00000   0.00000  -0.00005  -0.00005  -0.00009
   X28      -12.07455   0.00157   0.00000  -0.00518  -0.00518 -12.07973
   Y28        0.17100   0.00862   0.00000  -0.01044  -0.00863   0.16237
   Z28       -0.00022  -0.00000   0.00000  -0.00008  -0.00008  -0.00031
   X29      -11.16337   0.00001   0.00000   0.01068   0.01068 -11.15269
   Y29       -3.81418   0.00011   0.00000  -0.01513  -0.01332  -3.82751
   Z29       -0.00021  -0.00000   0.00000  -0.00006  -0.00006  -0.00027
   X30      -12.44935   0.00118   0.00000  -0.02456  -0.02456 -12.47392
   Y30        4.22128  -0.00047   0.00000  -0.02060  -0.01880   4.20248
   Z30       -0.00021  -0.00000   0.00000  -0.00009  -0.00009  -0.00030
   X31      -14.10110  -0.00073   0.00000  -0.00597  -0.00597 -14.10707
   Y31       -0.13498  -0.00010   0.00000  -0.01907  -0.01727  -0.15225
   Z31       -0.00028   0.00000   0.00000  -0.00011  -0.00010  -0.00039
   X32       -4.28641   0.00238   0.00000  -0.03246  -0.03246  -4.31887
   Y32        0.79232   0.04492   0.00000   0.05326   0.05507   0.84739
   Z32        0.00001   0.00000   0.00000   0.00001   0.00001   0.00002
   X33       -5.77623  -0.01528   0.00000  -0.02473  -0.02473  -5.80097
   Y33       -2.98454  -0.01750   0.00000  -0.02093  -0.01912  -3.00366
   Z33       -0.00007  -0.00001   0.00000   0.00001   0.00001  -0.00006
   X34        4.28642  -0.00238   0.00000   0.03246   0.03246   4.31888
   Y34        0.79231   0.04493   0.00000   0.05327   0.05508   0.84739
   Z34        0.00018   0.00000   0.00000  -0.00000  -0.00000   0.00018
   X35        5.77624   0.01528   0.00000   0.02474   0.02474   5.80098
   Y35       -2.98453  -0.01751   0.00000  -0.02094  -0.01913  -3.00366
   Z35       -0.00012  -0.00000   0.00000   0.00003   0.00003  -0.00009
   X36        5.99067  -0.00104   0.00000   0.00274   0.00274   5.99341
   Y36       -5.71583   0.00845   0.00000  -0.00272  -0.00091  -5.71675
   Z36        0.00000   0.00000   0.00000   0.00008   0.00008   0.00008
   X37        6.99929  -0.00048   0.00000  -0.00090  -0.00090   6.99839
   Y37       -6.37421   0.00036   0.00000  -0.00175   0.00005  -6.37415
   Z37       -1.68465  -0.00019   0.00000  -0.00179  -0.00179  -1.68644
   X38        6.99851  -0.00048   0.00000  -0.00073  -0.00073   6.99778
   Y38       -6.37420   0.00036   0.00000  -0.00164   0.00017  -6.37403
   Z38        1.68514   0.00019   0.00000   0.00188   0.00188   1.68702
   X39        4.08858  -0.00117   0.00000   0.00144   0.00144   4.09002
   Y39       -6.50079  -0.00178   0.00000  -0.01283  -0.01102  -6.51181
   Z39       -0.00045   0.00000   0.00000   0.00020   0.00020  -0.00025
   X40       -5.99065   0.00104   0.00000  -0.00274  -0.00274  -5.99339
   Y40       -5.71584   0.00844   0.00000  -0.00272  -0.00091  -5.71675
   Z40        0.00007   0.00000   0.00000   0.00002   0.00002   0.00009
   X41       -6.99837   0.00048   0.00000   0.00071   0.00071  -6.99767
   Y41       -6.37419   0.00036   0.00000  -0.00167   0.00014  -6.37405
   Z41        1.68528   0.00019   0.00000   0.00179   0.00179   1.68708
   X42       -6.99939   0.00048   0.00000   0.00092   0.00092  -6.99846
   Y42       -6.37424   0.00036   0.00000  -0.00172   0.00009  -6.37415
   Z42       -1.68450  -0.00019   0.00000  -0.00188  -0.00187  -1.68637
   X43       -4.08856   0.00117   0.00000  -0.00144  -0.00144  -4.09000
   Y43       -6.50080  -0.00178   0.00000  -0.01282  -0.01101  -6.51181
   Z43       -0.00050   0.00000   0.00000   0.00015   0.00015  -0.00035
   X44        0.00001  -0.00000   0.00000  -0.00000  -0.00000   0.00001
   Y44       -2.12681  -0.05500   0.00000  -0.03845  -0.03664  -2.16345
   Z44        0.00028   0.00000   0.00000   0.00006   0.00006   0.00034
         Item               Value     Threshold  Converged?
 Maximum Force            0.084116     0.000450     NO 
 RMS     Force            0.012779     0.000300     NO 
 Maximum Displacement     0.110174     0.001800     NO 
 RMS     Displacement     0.018147     0.001200     NO 
 Predicted change in Energy=-1.079638D-02
 GradGradGradGradGradGradGradGradGradGradGradGradGradGradGradGradGradGrad

 Unable to Open any file for archive entry.
 1\1\GINC-X11P1N5\Force\UPBE1PBE\GenECP\C22H17Co1N4(3)\MAYUMIAO\17-Jul-
 2024\0\\# pbe1pbe em=gd3bj genecp g09default scf=(xqc,maxcycle=64) for
 ce guess=read nosymm\\Title Card\\0,3\C,0.00000106,0.59958921,0.000062
 32\C,-1.17673491,1.36392896,0.00004873\C,-1.22917837,2.75077879,-0.000
 00029\C,0.00000039,3.42988689,0.00001179\C,1.22918052,2.75077863,0.000
 05131\C,1.17673738,1.36393234,0.00008935\H,-2.15304899,3.32776128,-0.0
 0004699\H,0.00000128,4.50692124,-0.00000977\H,2.15305194,3.32776244,0.
 00005025\C,3.64606329,0.57058566,-0.00001611\C,1.88081965,-0.88965146,
 0.00009932\C,4.16856605,-0.73759421,-0.00011082\C,4.52523851,1.6654009
 4,-0.00004724\C,5.52918245,-1.00030387,-0.00020928\C,5.88658226,1.4024
 6168,-0.00016881\H,4.1585046,2.68471399,0.00001461\C,6.38958602,0.0904
 9846,-0.00023894\H,5.90740625,-2.01837229,-0.00025156\H,6.58791667,2.2
 3381421,-0.00019687\H,7.46198162,-0.07141549,-0.00032107\C,-3.64606313
 ,0.57058277,-0.00002169\C,-1.88081546,-0.88965102,0.00002284\C,-4.1685
 5256,-0.73759813,-0.00006844\C,-4.52523175,1.66539441,-0.00004709\C,-5
 .52918197,-1.00031258,-0.00010805\C,-5.88658525,1.40245276,-0.00009637
 \H,-4.1585047,2.68470929,-0.0000202\C,-6.38957687,0.09048884,-0.000118
 58\H,-5.90739944,-2.01837951,-0.00011148\H,-6.58791473,2.2338034,-0.00
 011003\H,-7.461979,-0.07142669,-0.00014916\N,-2.26827185,0.41927786,0.
 00000298\N,-3.05665118,-1.57935017,-0.00003962\N,2.26827559,0.41927417
 ,0.00009527\N,3.05665362,-1.57934337,-0.00006354\C,3.17012624,-3.02468
 794,0.00000076\H,3.70386585,-3.37308419,-0.89147589\H,3.70345058,-3.37
 308056,0.89173524\H,2.16358098,-3.4400704,-0.00023626\C,-3.1701161,-3.
 02469016,0.0000393\H,-3.70337937,-3.37307503,0.89181331\H,-3.70391587,
 -3.3731011,-0.89139804\H,-2.16357163,-3.44007267,-0.0002636\Co,0.00000
 635,-1.12546036,0.00014843\\Version=ES64L-G16RevC.01\HF=-1212.1229055\
 S2=2.103019\S2-1=0.\S2A=2.002754\RMSD=8.034e-09\RMSF=1.278e-02\Dipole=
 0.0000344,-1.2263943,-0.0004189\Quadrupole=8.203262,11.5913133,-19.794
 5753,-0.0000452,-0.000302,0.0020444\PG=C01 [X(C22H17Co1N4)]\\@
 The archive entry for this job was punched.


 ERROR IS A HARDY PLANT... IT FLOURISHETH IN EVERY SOIL.
            MARTIN FARQUHAR TUPPER
 Job cpu time:       0 days  0 hours 31 minutes 18.3 seconds.
 Elapsed time:       0 days  0 hours  0 minutes 34.2 seconds.
 File lengths (MBytes):  RWF=    184 Int=      0 D2E=      0 Chk=     72 Scr=      1
 Normal termination of Gaussian 16 at Wed Jul 17 20:40:37 2024.
