 Entering Gaussian System, Link 0=g16
 Input=JOBS/5_B.gjf
 Output=JOBS/5_B.log
 Initial command:
 /data/app/gaussian/C01-avx2//g16/l1.exe "/tmp/Gau-2040647.inp" -scrdir="/tmp/"
 Entering Link 1 = /data/app/gaussian/C01-avx2//g16/l1.exe PID=   2040648.
  
 Copyright (c) 1988-2019, Gaussian, Inc.  All Rights Reserved.
  
 This is part of the Gaussian(R) 16 program.  It is based on
 the Gaussian(R) 09 system (copyright 2009, Gaussian, Inc.),
 the Gaussian(R) 03 system (copyright 2003, Gaussian, Inc.),
 the Gaussian(R) 98 system (copyright 1998, Gaussian, Inc.),
 the Gaussian(R) 94 system (copyright 1995, Gaussian, Inc.),
 the Gaussian 92(TM) system (copyright 1992, Gaussian, Inc.),
 the Gaussian 90(TM) system (copyright 1990, Gaussian, Inc.),
 the Gaussian 88(TM) system (copyright 1988, Gaussian, Inc.),
 the Gaussian 86(TM) system (copyright 1986, Carnegie Mellon
 University), and the Gaussian 82(TM) system (copyright 1983,
 Carnegie Mellon University). Gaussian is a federally registered
 trademark of Gaussian, Inc.
  
 This software contains proprietary and confidential information,
 including trade secrets, belonging to Gaussian, Inc.
  
 This software is provided under written license and may be
 used, copied, transmitted, or stored only in accord with that
 written license.
  
 The following legend is applicable only to US Government
 contracts under FAR:
  
                    RESTRICTED RIGHTS LEGEND
  
 Use, reproduction and disclosure by the US Government is
 subject to restrictions as set forth in subparagraphs (a)
 and (c) of the Commercial Computer Software - Restricted
 Rights clause in FAR 52.227-19.
  
 Gaussian, Inc.
 340 Quinnipiac St., Bldg. 40, Wallingford CT 06492
  
  
 ---------------------------------------------------------------
 Warning -- This program may not be used in any manner that
 competes with the business of Gaussian, Inc. or will provide
 assistance to any competitor of Gaussian, Inc.  The licensee
 of this program is prohibited from giving any competitor of
 Gaussian, Inc. access to this program.  By using this program,
 the user acknowledges that Gaussian, Inc. is engaged in the
 business of creating and licensing software in the field of
 computational chemistry and represents and warrants to the
 licensee that it is not a competitor of Gaussian, Inc. and that
 it will not use this program in any manner prohibited above.
 ---------------------------------------------------------------
  

 Cite this work as:
 Gaussian 16, Revision C.01,
 M. J. Frisch, G. W. Trucks, H. B. Schlegel, G. E. Scuseria, 
 M. A. Robb, J. R. Cheeseman, G. Scalmani, V. Barone, 
 G. A. Petersson, H. Nakatsuji, X. Li, M. Caricato, A. V. Marenich, 
 J. Bloino, B. G. Janesko, R. Gomperts, B. Mennucci, H. P. Hratchian, 
 J. V. Ortiz, A. F. Izmaylov, J. L. Sonnenberg, D. Williams-Young, 
 F. Ding, F. Lipparini, F. Egidi, J. Goings, B. Peng, A. Petrone, 
 T. Henderson, D. Ranasinghe, V. G. Zakrzewski, J. Gao, N. Rega, 
 G. Zheng, W. Liang, M. Hada, M. Ehara, K. Toyota, R. Fukuda, 
 J. Hasegawa, M. Ishida, T. Nakajima, Y. Honda, O. Kitao, H. Nakai, 
 T. Vreven, K. Throssell, J. A. Montgomery, Jr., J. E. Peralta, 
 F. Ogliaro, M. J. Bearpark, J. J. Heyd, E. N. Brothers, K. N. Kudin, 
 V. N. Staroverov, T. A. Keith, R. Kobayashi, J. Normand, 
 K. Raghavachari, A. P. Rendell, J. C. Burant, S. S. Iyengar, 
 J. Tomasi, M. Cossi, J. M. Millam, M. Klene, C. Adamo, R. Cammi, 
 J. W. Ochterski, R. L. Martin, K. Morokuma, O. Farkas, 
 J. B. Foresman, and D. J. Fox, Gaussian, Inc., Wallingford CT, 2019.
 
 ******************************************
 Gaussian 16:  ES64L-G16RevC.01  3-Jul-2019
                17-Jul-2024 
 ******************************************
 %chk=b.chk
 %nprocshared=56
 Will use up to   56 processors via shared memory.
 %mem=96gb
 ----------------------------------------------------------------------
 # pbe1pbe em=gd3bj genecp g09default scf=(xqc,maxcycle=64) force guess
 =read nosymm
 ----------------------------------------------------------------------
 1/10=7,30=1,38=1,158=3,167=1/1,3;
 2/12=2,15=1,17=6,18=5,40=1/2;
 3/5=7,11=2,16=1,17=8,25=1,27=10,30=1,71=1,74=-13,75=-4,116=-2,124=41,158=3/1,2,3;
 4/5=1,60=-1/1;
 5/5=2,7=64,8=3,13=1,38=6,87=10/2,8;
 6/7=2,8=2,9=2,10=2,28=1,87=10/1;
 7/29=1,30=1,87=10/1,2,3,16;
 1/10=7,30=1,158=3,167=1/3;
 99//99;
 Using 2006 physical constants.
 ----------
 Title Card
 ----------
 Symbolic Z-matrix:
 Charge =  0 Multiplicity = 3
 6                     0.        0.65764   0.00011 
 6                    -1.21512   1.35839   0.00004 
 6                    -1.237     2.74874  0. 
 6                     0.        3.41479   0.00001 
 6                     1.23701   2.74874   0.00005 
 6                     1.21512   1.35839   0.00008 
 1                    -2.15508   3.32632  -0.00005 
 1                     0.        4.49838  -0.00001 
 1                     2.15508   3.32632   0.00005 
 6                     3.6555    0.57581  -0.00002 
 6                     1.88404  -0.89428   0.00008 
 6                     4.16633  -0.73919  -0.0001 
 6                     4.52574   1.66516  -0.00005 
 6                     5.52889  -1.00152  -0.00021 
 6                     5.89595   1.40108  -0.00017 
 1                     4.15918   2.6842    0.00001 
 6                     6.39066   0.09542  -0.00024 
 1                     5.90697  -2.01853  -0.00025 
 1                     6.59087   2.23523  -0.0002 
 1                     7.46253  -0.07107  -0.00032 
 6                    -3.6555    0.57581  -0.00003 
 6                    -1.88403  -0.89428   0.00002 
 6                    -4.16632  -0.73919  -0.00006 
 6                    -4.52573   1.66515  -0.00005 
 6                    -5.52889  -1.00153  -0.0001 
 6                    -5.89595   1.40107  -0.0001 
 1                    -4.15918   2.6842   -0.00002 
 6                    -6.39065   0.09541  -0.00012 
 1                    -5.90696  -2.01853  -0.00011 
 1                    -6.59087   2.23522  -0.00011 
 1                    -7.46253  -0.07108  -0.00015 
 7                    -2.2759    0.44088   0.00001 
 7                    -3.07072  -1.58678  -0.00003 
 7                     2.2759    0.44088   0.00009 
 7                     3.07072  -1.58677  -0.00005 
 6                     3.17438  -3.0236    0. 
 1                     3.70402  -3.37736  -0.8924 
 1                     3.7036   -3.37736   0.89266 
 1                     2.16679  -3.44208  -0.00024 
 6                    -3.17437  -3.0236    0.00004 
 1                    -3.70353  -3.37735   0.89274 
 1                    -3.70407  -3.37738  -0.89232 
 1                    -2.16678  -3.44209  -0.00027 
 27                    0.       -1.15561   0.00012 
 

 GradGradGradGradGradGradGradGradGradGradGradGradGradGradGradGradGradGrad
 Berny optimization.
 Initialization pass.
 Trust Radius=3.00D-01 FncErr=1.00D-07 GrdErr=1.00D-07 EigMax=2.50D+02 EigMin=1.00D-04
 Number of steps in this run=      2 maximum allowed number of steps=      2.
 GradGradGradGradGradGradGradGradGradGradGradGradGradGradGradGradGradGrad

                          Input orientation:                          
 ---------------------------------------------------------------------
 Center     Atomic      Atomic             Coordinates (Angstroms)
 Number     Number       Type             X           Y           Z
 ---------------------------------------------------------------------
      1          6           0        0.000001    0.657638    0.000108
      2          6           0       -1.215120    1.358393    0.000036
      3          6           0       -1.237004    2.748742   -0.000004
      4          6           0        0.000001    3.414793    0.000014
      5          6           0        1.237006    2.748743    0.000048
      6          6           0        1.215123    1.358395    0.000077
      7          1           0       -2.155081    3.326322   -0.000045
      8          1           0        0.000001    4.498379   -0.000011
      9          1           0        2.155083    3.326323    0.000051
     10          6           0        3.655504    0.575814   -0.000020
     11          6           0        1.884041   -0.894278    0.000085
     12          6           0        4.166334   -0.739189   -0.000101
     13          6           0        4.525737    1.665162   -0.000050
     14          6           0        5.528894   -1.001522   -0.000206
     15          6           0        5.895955    1.401081   -0.000169
     16          1           0        4.159179    2.684204    0.000014
     17          6           0        6.390661    0.095421   -0.000241
     18          1           0        5.906965   -2.018525   -0.000250
     19          1           0        6.590869    2.235228   -0.000196
     20          1           0        7.462534   -0.071069   -0.000322
     21          6           0       -3.655502    0.575811   -0.000028
     22          6           0       -1.884035   -0.894277    0.000025
     23          6           0       -4.166325   -0.739194   -0.000065
     24          6           0       -4.525733    1.665155   -0.000049
     25          6           0       -5.528890   -1.001530   -0.000105
     26          6           0       -5.895955    1.401073   -0.000097
     27          1           0       -4.159179    2.684199   -0.000021
     28          6           0       -6.390654    0.095412   -0.000121
     29          1           0       -5.906958   -2.018533   -0.000110
     30          1           0       -6.590868    2.235217   -0.000109
     31          1           0       -7.462531   -0.071080   -0.000150
     32          7           0       -2.275901    0.440876    0.000009
     33          7           0       -3.070718   -1.586777   -0.000032
     34          7           0        2.275904    0.440875    0.000093
     35          7           0        3.070722   -1.586771   -0.000048
     36          6           0        3.174381   -3.023601    0.000004
     37          1           0        3.704021   -3.377360   -0.892397
     38          1           0        3.703601   -3.377360    0.892657
     39          1           0        2.166790   -3.442084   -0.000243
     40          6           0       -3.174371   -3.023603    0.000042
     41          1           0       -3.703530   -3.377352    0.892736
     42          1           0       -3.704071   -3.377377   -0.892319
     43          1           0       -2.166780   -3.442086   -0.000270
     44         27           0        0.000004   -1.155611    0.000123
 ---------------------------------------------------------------------
                    Distance matrix (angstroms):
                    1          2          3          4          5
     1  C    0.000000
     2  C    1.402704   0.000000
     3  C    2.429589   1.390521   0.000000
     4  C    2.757156   2.388577   1.404922   0.000000
     5  C    2.429589   2.818864   2.474011   1.404922   0.000000
     6  C    1.402705   2.430244   2.818865   2.388577   1.390521
     7  H    3.430197   2.180887   1.084648   2.156897   3.440908
     8  H    3.840742   3.366903   2.142758   1.083586   2.142757
     9  H    3.430198   3.902693   3.440909   2.156897   1.084649
    10  C    3.656418   4.933093   5.353340   4.628445   3.251269
    11  C    2.440911   3.831361   4.797136   4.702946   3.700034
    12  C    4.394252   5.775803   6.431308   5.883358   4.554847
    13  C    4.636528   5.749048   5.863730   4.852164   3.462643
    14  C    5.772474   7.144993   7.735752   7.076192   5.699542
    15  C    5.942640   7.111203   7.259153   6.230354   4.849948
    16  H    4.626633   5.535420   5.396570   4.222858   2.922886
    17  C    6.415343   7.709929   8.075976   7.201303   5.796575
    18  H    6.484911   7.882111   8.588547   8.025782   6.673482
    19  H    6.777045   7.855082   7.844699   6.695590   5.378434
    20  H    7.498027   8.794603   9.145125   8.236543   6.834364
    21  C    3.656419   2.562791   3.251271   4.628447   5.353342
    22  C    2.440908   2.349888   3.700033   4.702944   4.797134
    23  C    4.394247   3.620702   4.554846   5.883356   6.431305
    24  C    4.636525   3.324795   3.462643   4.852165   5.863730
    25  C    5.772475   4.917097   5.699546   7.076195   7.735754
    26  C    5.942642   4.681029   4.849952   6.230358   7.259156
    27  H    4.626633   3.228815   2.922888   4.222860   5.396571
    28  C    6.415339   5.327408   5.796574   7.201303   8.075975
    29  H    6.484910   5.780742   6.673484   8.025783   8.588547
    30  H    6.777043   5.446787   5.378435   6.695592   7.844700
    31  H    7.498027   6.408863   6.834367   8.236546   9.145127
    32  N    2.286201   1.402531   2.530919   3.744851   4.203185
    33  N    3.803513   3.480987   4.707360   5.868988   6.111728
    34  N    2.286202   3.609583   4.203186   3.744853   2.530921
    35  N    3.803511   5.200234   6.111725   5.868984   4.707355
    36  C    4.860885   6.202386   7.265003   7.178413   6.088791
    37  H    5.549552   6.886344   7.920809   7.787779   6.664214
    38  H    5.549279   6.886069   7.920578   7.787606   6.664081
    39  H    4.637099   5.872129   7.064853   7.191088   6.260259
    40  C    4.860882   4.800058   6.088790   7.178411   7.265000
    41  H    5.549241   5.423687   6.664066   7.787576   7.920532
    42  H    5.549587   5.423900   6.664232   7.787810   7.920853
    43  H    4.637098   4.893900   6.260259   7.191087   7.064851
    44  Co   1.813249   2.792265   4.095628   4.570404   4.095626
                    6          7          8          9         10
     6  C    0.000000
     7  H    3.902693   0.000000
     8  H    3.366902   2.453181   0.000000
     9  H    2.180886   4.310164   2.453181   0.000000
    10  C    2.562789   6.428700   5.361830   3.133139   0.000000
    11  C    2.349890   5.841914   5.712299   4.229294   2.302010
    12  C    3.620704   7.515894   6.692567   4.535804   1.410738
    13  C    3.324796   6.884241   5.339420   2.894729   1.394268
    14  C    4.917095   8.818939   7.798562   5.487516   2.448995
    15  C    4.681026   8.278026   6.659994   4.207217   2.387611
    16  H    3.228813   6.346825   4.537620   2.104452   2.167717
    17  C    5.327410   9.136105   7.760579   5.327180   2.777024
    18  H    5.780741   9.672847   8.795583   6.530239   3.435066
    19  H    5.446786   8.813746   6.968601   4.568007   3.371947
    20  H    6.408861  10.200038   8.750386   6.301691   3.861598
    21  C    4.933095   3.133141   5.361832   6.428702   7.311005
    22  C    3.831359   4.229293   5.712297   5.841912   5.731287
    23  C    5.775800   4.535804   6.692566   7.515891   7.931598
    24  C    5.749047   2.894731   5.339422   6.884242   8.253442
    25  C    7.144995   5.487521   7.798566   8.818942   9.318857
    26  C    7.111206   4.207223   6.660000   8.278031   9.587044
    27  H    5.535421   2.104455   4.537624   6.346828   8.094106
    28  C    7.709927   5.327181   7.760580   9.136105  10.057638
    29  H    7.882112   6.530242   8.795585   9.672848   9.908144
    30  H    7.855082   4.568010   6.968605   8.813749  10.379872
    31  H    8.794605   6.301695   8.750391  10.200041  11.136838
    32  N    3.609583   2.887973   4.652210   5.287667   5.932939
    33  N    5.200238   4.997692   6.816043   7.172694   7.065328
    34  N    1.402532   5.287667   4.652212   2.887976   1.386183
    35  N    3.480983   7.172690   6.816038   4.997687   2.240255
    36  C    4.800060   8.290035   8.164366   6.431213   3.631428
    37  H    5.423881   8.947888   8.748907   6.937941   4.052934
    38  H    5.423706   8.947649   8.748759   6.937868   4.052995
    39  H    4.893901   8.030559   8.230792   6.768417   4.284831
    40  C    6.202384   6.431213   8.164365   8.290033   7.720298
    41  H    6.886021   6.937867   8.748731   8.947597   8.401185
    42  H    6.886391   6.937946   8.748937   8.947938   8.401622
    43  H    5.872128   6.768418   8.230792   8.030558   7.074073
    44  Co   2.792264   4.973139   5.653990   4.973137   4.044813
                   11         12         13         14         15
    11  C    0.000000
    12  C    2.287556   0.000000
    13  C    3.678218   2.431064   0.000000
    14  C    3.646430   1.387584   2.849127   0.000000
    15  C    4.622134   2.751789   1.395434   2.430480   0.000000
    16  H    4.240494   3.423401   1.082964   3.932009   2.159350
    17  C    4.614015   2.375754   2.437628   1.394965   1.396239
    18  H    4.177063   2.160208   3.934125   1.085004   3.419624
    19  H    5.652260   3.837386   2.142369   3.406514   1.085683
    20  H    5.638906   3.363231   3.411638   2.145858   2.149743
    21  C    5.731291   7.931604   8.253445   9.318857   9.587043
    22  C    3.768075   6.052356   6.901877   7.413704   8.111529
    23  C    6.052353   8.332658   9.018473   9.698767  10.287383
    24  C    6.901876   9.018475   9.051470  10.402244  10.425033
    25  C    7.413706   9.698772  10.402248  11.057783  11.674742
    26  C    8.111532  10.287389  10.425037  11.674743  11.791909
    27  H    7.023247   9.001875   8.744496  10.365486  10.136672
    28  C    8.333670  10.589927  11.028677  11.969916  12.355789
    29  H    7.871697  10.154207  11.063938  11.480985  12.288308
    30  H    9.034258  11.160846  11.131211  12.544525  12.514652
    31  H    9.382753  11.648041  12.113344  13.024701  13.439360
    32  N    4.368953   6.549423   6.910944   7.936960   8.228075
    33  N    5.002918   7.286517   8.263246   8.619504   9.451376
    34  N    1.391471   2.228515   2.561372   3.558434   3.745232
    35  N    1.373958   1.385193   3.562602   2.526880   4.112079
    36  C    2.489778   2.490483   4.879617   3.103632   5.194687
    37  H    3.205393   2.823096   5.186378   3.125824   5.332367
    38  H    3.205181   2.823311   5.186507   3.126260   5.332640
    39  H    2.563448   3.362115   5.625708   4.154526   6.112522
    40  C    5.488311   7.687945   9.015330   8.935079  10.092009
    41  H    6.179274   8.348163   9.692515   9.574945  10.760149
    42  H    6.179738   8.348614   9.692940   9.575395  10.760580
    43  H    4.785444   6.885781   8.418656   8.073397   9.405528
    44  Co   1.902075   4.187089   5.332825   5.531037   6.426423
                   16         17         18         19         20
    16  H    0.000000
    17  C    3.417793   0.000000
    18  H    5.017013   2.168578   0.000000
    19  H    2.472791   2.149152   4.308380   0.000000
    20  H    4.301591   1.084726   2.492465   2.465523   0.000000
    21  C    8.094107  10.057642   9.908146  10.379874  11.136838
    22  C    7.023245   8.333672   7.871697   9.034257   9.382751
    23  C    9.001870  10.589926  10.154204  11.160843  11.648036
    24  C    8.744493  11.028678  11.063937  11.131210  12.113341
    25  C   10.365487  11.969920  11.480987  12.544527  13.024701
    26  C   10.136673  12.355794  12.288310  12.514655  13.439361
    27  H    8.318359  10.862822  11.110485  10.759420  11.943857
    28  C   10.862819  12.781316  12.477987  13.156701  13.854189
    29  H   11.110484  12.477990  11.813923  13.201900  13.510586
    30  H   10.759419  13.156703  13.201900  13.181737  14.241385
    31  H   11.943857  13.854192  13.510587  14.241387  14.925064
    32  N    6.814894   8.673444   8.544469   9.046508   9.751882
    33  N    8.397184   9.609760   8.988059  10.390091  10.641747
    34  N    2.929036   4.129233   4.385574   4.673182   5.211834
    35  N    4.407489   3.721796   2.868917   5.196066   4.646005
    36  C    5.792138   4.480263   2.911562   6.271178   5.206313
    37  H    6.143787   4.480422   2.737758   6.374249   5.084661
    38  H    6.143852   4.480822   2.738344   6.374531   5.085130
    39  H    6.442129   5.509540   4.001928   7.197524   6.277631
    40  C    9.293009  10.060723   9.136785  11.091223  11.039076
    41  H    9.968030  10.712155   9.747074  11.758956  11.679471
    42  H    9.968437  10.712597   9.747526  11.759380  11.679914
    43  H    8.806202   9.259792   8.198285  10.436873  10.202325
    44  Co   5.660647   6.511957   5.969658   7.411970   7.540927
                   21         22         23         24         25
    21  C    0.000000
    22  C    2.302011   0.000000
    23  C    1.410737   2.287553   0.000000
    24  C    1.394264   3.678215   2.431063   0.000000
    25  C    2.448997   3.646432   1.387589   2.849128   0.000000
    26  C    2.387611   4.622135   2.751792   1.395438   2.430480
    27  H    2.167716   4.240493   3.423401   1.082965   3.932010
    28  C    2.777020   4.614012   2.375754   2.437627   1.394962
    29  H    3.435066   4.177064   2.160211   3.934125   1.085003
    30  H    3.371944   5.652257   3.837386   2.142371   3.406513
    31  H    3.861598   5.638907   3.363235   3.411640   2.145857
    32  N    1.386184   1.391472   2.228513   2.561367   3.558437
    33  N    2.240259   1.373963   1.385190   3.562601   2.526880
    34  N    5.932940   4.368950   6.549418   6.910943   7.936960
    35  N    7.065327   5.002916   7.286510   8.263241   8.619503
    36  C    7.720302   5.488314   7.687943   9.015331   8.935082
    37  H    8.401574   6.179683   8.348563   9.692888   9.575353
    38  H    8.401241   6.179334   8.348210   9.692565   9.574992
    39  H    7.074077   4.785447   6.885779   8.418655   8.073400
    40  C    3.631428   2.489778   2.490481   4.879614   3.103633
    41  H    4.053003   3.205177   2.823323   5.186517   3.126281
    42  H    4.052930   3.205401   2.823085   5.186367   3.125806
    43  H    4.284833   2.563450   3.362113   5.625706   4.154527
    44  Co   4.044817   1.902077   4.187087   5.332824   5.531040
                   26         27         28         29         30
    26  C    0.000000
    27  H    2.159352   0.000000
    28  C    1.396237   3.417792   0.000000
    29  H    3.419623   5.017013   2.168577   0.000000
    30  H    1.085680   2.472791   2.149152   4.308379   0.000000
    31  H    2.149743   4.301592   1.084729   2.492465   2.465523
    32  N    3.745232   2.929033   4.129230   4.385575   4.673179
    33  N    4.112080   4.407492   3.721792   2.868914   5.196065
    34  N    8.228077   6.814895   8.673441   8.544467   9.046508
    35  N    9.451376   8.397182   9.609755   8.988057  10.390087
    36  C   10.092013   9.293013  10.060723   9.136787  11.091224
    37  H   10.760536   9.968387  10.712552   9.747487  11.759334
    38  H   10.760200   9.968084  10.712198   9.747117  11.759003
    39  H    9.405531   8.806204   9.259791   8.198286  10.436873
    40  C    5.194687   5.792138   4.480260   2.911563   6.271176
    41  H    5.332656   6.143862   4.480839   2.738368   6.374545
    42  H    5.332354   6.143780   4.480403   2.737737   6.374234
    43  H    6.112523   6.442129   5.509538   4.001929   7.197523
    44  Co   6.426426   5.660649   6.511956   5.969659   7.411971
                   31         32         33         34         35
    31  H    0.000000
    32  N    5.211835   0.000000
    33  N    4.646004   2.177869   0.000000
    34  N    9.751882   4.551805   5.718194   0.000000
    35  N   10.641745   5.718193   6.141440   2.177862   0.000000
    36  C   11.039079   6.458187   6.408255   3.579086   1.440565
    37  H   11.679874   7.150859   7.063964   4.173125   2.098467
    38  H   11.679516   7.150538   7.063603   4.172998   2.098492
    39  H   10.202327   5.900414   5.556407   3.884492   2.063803
    40  C    5.206314   3.579088   1.440560   6.458182   6.408251
    41  H    5.085152   4.173003   2.098487   7.150476   7.063550
    42  H    5.084642   4.173126   2.098466   7.150912   7.064010
    43  H    6.277632   3.884496   2.063802   5.900409   5.556404
    44  Co   7.540930   2.780021   3.100845   2.780016   3.100840
                   36         37         38         39         40
    36  C    0.000000
    37  H    1.096377   0.000000
    38  H    1.096380   1.785054   0.000000
    39  H    1.091040   1.778541   1.778553   0.000000
    40  C    6.348752   6.945060   6.944668   5.357530   0.000000
    41  H    6.944622   7.619613   7.407131   5.938203   1.096380
    42  H    6.945106   7.408091   7.619694   5.938602   1.096378
    43  H    5.357530   5.938550   5.938256   4.333569   1.091040
    44  Co   3.683213   4.410499   4.410150   3.150067   3.683212
                   41         42         43         44
    41  H    0.000000
    42  H    1.785054   0.000000
    43  H    1.778553   1.778539   0.000000
    44  Co   4.410108   4.410540   3.150067   0.000000
 Symmetry turned off by external request.
 Stoichiometry    C22H17CoN4(3)
 Framework group  C1[X(C22H17CoN4)]
 Deg. of freedom   126
 Full point group                 C1      NOp   1
 Rotational constants (GHZ):           0.4716120           0.1017335           0.0837712
 General basis read from cards:  (5D, 7F)
 ======================================================================================================
                                       Pseudopotential Parameters
 ======================================================================================================
  Center     Atomic      Valence      Angular      Power
  Number     Number     Electrons     Momentum     of R      Exponent        Coefficient   SO-Coeffient
 ======================================================================================================
    1          6
                                   No pseudopotential on this center.
    2          6
                                   No pseudopotential on this center.
    3          6
                                   No pseudopotential on this center.
    4          6
                                   No pseudopotential on this center.
    5          6
                                   No pseudopotential on this center.
    6          6
                                   No pseudopotential on this center.
    7          1
                                   No pseudopotential on this center.
    8          1
                                   No pseudopotential on this center.
    9          1
                                   No pseudopotential on this center.
   10          6
                                   No pseudopotential on this center.
   11          6
                                   No pseudopotential on this center.
   12          6
                                   No pseudopotential on this center.
   13          6
                                   No pseudopotential on this center.
   14          6
                                   No pseudopotential on this center.
   15          6
                                   No pseudopotential on this center.
   16          1
                                   No pseudopotential on this center.
   17          6
                                   No pseudopotential on this center.
   18          1
                                   No pseudopotential on this center.
   19          1
                                   No pseudopotential on this center.
   20          1
                                   No pseudopotential on this center.
   21          6
                                   No pseudopotential on this center.
   22          6
                                   No pseudopotential on this center.
   23          6
                                   No pseudopotential on this center.
   24          6
                                   No pseudopotential on this center.
   25          6
                                   No pseudopotential on this center.
   26          6
                                   No pseudopotential on this center.
   27          1
                                   No pseudopotential on this center.
   28          6
                                   No pseudopotential on this center.
   29          1
                                   No pseudopotential on this center.
   30          1
                                   No pseudopotential on this center.
   31          1
                                   No pseudopotential on this center.
   32          7
                                   No pseudopotential on this center.
   33          7
                                   No pseudopotential on this center.
   34          7
                                   No pseudopotential on this center.
   35          7
                                   No pseudopotential on this center.
   36          6
                                   No pseudopotential on this center.
   37          1
                                   No pseudopotential on this center.
   38          1
                                   No pseudopotential on this center.
   39          1
                                   No pseudopotential on this center.
   40          6
                                   No pseudopotential on this center.
   41          1
                                   No pseudopotential on this center.
   42          1
                                   No pseudopotential on this center.
   43          1
                                   No pseudopotential on this center.
   44         27           17
                                      F and up 
                                                     2        1.0000000        0.00000000    0.00000000
                                      S - F
                                                     2       23.6600000      283.96056600    0.00000000
                                                     2       10.6100000       47.15684600    0.00000000
                                      P - F
                                                     2       25.0400000      182.21223600    0.00000000
                                                     2       10.4400000       35.23335200    0.00000000
                                      D - F
                                                     2       29.5400000      -26.47533300    0.00000000
                                                     2       10.1800000       -1.82578700    0.00000000
 ======================================================================================================
   441 basis functions,   871 primitive gaussians,   473 cartesian basis functions
    98 alpha electrons       96 beta electrons
       nuclear repulsion energy      2502.0609599696 Hartrees.
 NAtoms=   44 NActive=   44 NUniq=   44 SFac= 1.00D+00 NAtFMM=   60 NAOKFM=F Big=F
 Integral buffers will be    131072 words long.
 Raffenetti 2 integral format.
 Two-electron integral symmetry is turned off.
 Nuclear repulsion after empirical dispersion term =     2502.0017181564 Hartrees.
 One-electron integrals computed using PRISM.
   1 Symmetry operations used in ECPInt.
 ECPInt:  NShTT=   11781 NPrTT=   71406 LenC2=    9558 LenP2D=   32140.
 LDataN:  DoStor=T MaxTD1= 6 Len=  172
 NBasis=   441 RedAO= T EigKep=  3.56D-04  NBF=   441
 NBsUse=   441 1.00D-06 EigRej= -1.00D+00 NBFU=   441
 Initial guess from the checkpoint file:  "b.chk"
 B after Tr=    -0.000001   -0.004196   -0.000004
         Rot=    1.000000   -0.000000    0.000000    0.000000 Ang=  -0.00 deg.
 Initial guess <Sx>= 0.0000 <Sy>= 0.0000 <Sz>= 1.0000 <S**2>= 2.1049 S= 1.0346
 Requested convergence on RMS density matrix=1.00D-08 within  64 cycles.
 Requested convergence on MAX density matrix=1.00D-06.
 Requested convergence on             energy=1.00D-06.
 No special actions if energy rises.
 EnCoef did     3 forward-backward iterations
 Restarting incremental Fock formation.
 SCF Done:  E(UPBE1PBE) =  -1212.13677747     A.U. after   24 cycles
            NFock= 24  Conv=0.71D-08     -V/T= 2.0552
 <Sx>= 0.0000 <Sy>= 0.0000 <Sz>= 1.0000 <S**2>= 2.1331 S= 1.0437
 <L.S>=  0.00000000000    
 Annihilation of the first spin contaminant:
 S**2 before annihilation     2.1331,   after     2.0032
 QCSCF skips out because SCF is already converged.

 **********************************************************************

            Population analysis using the SCF Density.

 **********************************************************************

 Alpha  occ. eigenvalues --  -14.45030 -14.45030 -14.44598 -14.44597 -10.27359
 Alpha  occ. eigenvalues --  -10.27358 -10.27224 -10.27224 -10.27202 -10.27202
 Alpha  occ. eigenvalues --  -10.26949 -10.26949 -10.26255 -10.26255 -10.23627
 Alpha  occ. eigenvalues --  -10.23627 -10.23530 -10.23530 -10.23002 -10.23002
 Alpha  occ. eigenvalues --  -10.22910 -10.22910 -10.22601 -10.22340 -10.22336
 Alpha  occ. eigenvalues --  -10.19819  -3.93719  -2.46655  -2.43623  -2.42705
 Alpha  occ. eigenvalues --   -1.06001  -1.05904  -0.96373  -0.95886  -0.87958
 Alpha  occ. eigenvalues --   -0.87583  -0.85661  -0.79948  -0.78779  -0.77617
 Alpha  occ. eigenvalues --   -0.77511  -0.75731  -0.75018  -0.72944  -0.72725
 Alpha  occ. eigenvalues --   -0.66600  -0.65147  -0.64298  -0.63669  -0.62897
 Alpha  occ. eigenvalues --   -0.61214  -0.58766  -0.57990  -0.56163  -0.53834
 Alpha  occ. eigenvalues --   -0.53026  -0.51941  -0.49638  -0.49548  -0.49362
 Alpha  occ. eigenvalues --   -0.48082  -0.47329  -0.47017  -0.46925  -0.45750
 Alpha  occ. eigenvalues --   -0.45727  -0.45048  -0.44710  -0.44704  -0.43995
 Alpha  occ. eigenvalues --   -0.42254  -0.42043  -0.41616  -0.39076  -0.38888
 Alpha  occ. eigenvalues --   -0.38675  -0.38210  -0.37524  -0.37246  -0.36730
 Alpha  occ. eigenvalues --   -0.36129  -0.34770  -0.34713  -0.33676  -0.32288
 Alpha  occ. eigenvalues --   -0.31759  -0.30877  -0.30186  -0.27374  -0.27003
 Alpha  occ. eigenvalues --   -0.26549  -0.25970  -0.24608  -0.23717  -0.22930
 Alpha  occ. eigenvalues --   -0.20894  -0.20715  -0.09854
 Alpha virt. eigenvalues --   -0.05635  -0.02079  -0.00055   0.00299   0.00301
 Alpha virt. eigenvalues --    0.02309   0.03027   0.03747   0.04625   0.05660
 Alpha virt. eigenvalues --    0.06525   0.07951   0.08048   0.09837   0.10262
 Alpha virt. eigenvalues --    0.12508   0.12918   0.13880   0.13912   0.15257
 Alpha virt. eigenvalues --    0.15265   0.15473   0.15906   0.16585   0.16593
 Alpha virt. eigenvalues --    0.16981   0.17677   0.17920   0.18304   0.18353
 Alpha virt. eigenvalues --    0.19328   0.19658   0.20006   0.20252   0.20970
 Alpha virt. eigenvalues --    0.22036   0.23203   0.23574   0.24418   0.25406
 Alpha virt. eigenvalues --    0.25919   0.26051   0.26478   0.27441   0.27673
 Alpha virt. eigenvalues --    0.28092   0.28616   0.29684   0.30986   0.31408
 Alpha virt. eigenvalues --    0.32659   0.33453   0.34376   0.34813   0.36593
 Alpha virt. eigenvalues --    0.37745   0.37912   0.39302   0.39900   0.41287
 Alpha virt. eigenvalues --    0.42088   0.45055   0.45305   0.46296   0.46725
 Alpha virt. eigenvalues --    0.48416   0.50519   0.51058   0.51654   0.52934
 Alpha virt. eigenvalues --    0.53964   0.54165   0.56240   0.56334   0.56495
 Alpha virt. eigenvalues --    0.56519   0.57543   0.57919   0.58478   0.58695
 Alpha virt. eigenvalues --    0.58756   0.59918   0.60646   0.61357   0.61436
 Alpha virt. eigenvalues --    0.61587   0.61698   0.62960   0.63029   0.63272
 Alpha virt. eigenvalues --    0.63571   0.63859   0.64020   0.64105   0.64577
 Alpha virt. eigenvalues --    0.65115   0.65957   0.66189   0.66911   0.67429
 Alpha virt. eigenvalues --    0.67551   0.67809   0.68717   0.71045   0.71774
 Alpha virt. eigenvalues --    0.71936   0.73938   0.75518   0.76545   0.76975
 Alpha virt. eigenvalues --    0.77611   0.78204   0.80186   0.80587   0.81427
 Alpha virt. eigenvalues --    0.81768   0.82538   0.83450   0.83900   0.84413
 Alpha virt. eigenvalues --    0.84636   0.85306   0.85764   0.87115   0.87185
 Alpha virt. eigenvalues --    0.87418   0.87805   0.89677   0.91016   0.91155
 Alpha virt. eigenvalues --    0.91338   0.91464   0.91613   0.93104   0.93321
 Alpha virt. eigenvalues --    0.93475   0.94284   0.95586   0.95661   0.96405
 Alpha virt. eigenvalues --    0.97420   0.97563   0.98265   0.98347   0.98599
 Alpha virt. eigenvalues --    1.00087   1.00362   1.01569   1.02224   1.03149
 Alpha virt. eigenvalues --    1.04008   1.04593   1.06062   1.07320   1.07462
 Alpha virt. eigenvalues --    1.08725   1.09232   1.10006   1.10845   1.14031
 Alpha virt. eigenvalues --    1.15323   1.16256   1.16807   1.18008   1.18628
 Alpha virt. eigenvalues --    1.19012   1.21158   1.23756   1.23813   1.24609
 Alpha virt. eigenvalues --    1.25099   1.26423   1.27337   1.29004   1.29215
 Alpha virt. eigenvalues --    1.30140   1.30782   1.30810   1.33306   1.33574
 Alpha virt. eigenvalues --    1.34546   1.36914   1.37142   1.38096   1.38899
 Alpha virt. eigenvalues --    1.40707   1.41003   1.41910   1.42341   1.45006
 Alpha virt. eigenvalues --    1.45526   1.45810   1.46715   1.47338   1.48286
 Alpha virt. eigenvalues --    1.49228   1.49253   1.49768   1.50372   1.50390
 Alpha virt. eigenvalues --    1.51265   1.52951   1.55519   1.57856   1.58019
 Alpha virt. eigenvalues --    1.60028   1.60389   1.64040   1.65138   1.66914
 Alpha virt. eigenvalues --    1.69106   1.71722   1.73861   1.74764   1.77667
 Alpha virt. eigenvalues --    1.79734   1.79902   1.80377   1.82041   1.83423
 Alpha virt. eigenvalues --    1.84292   1.86261   1.86868   1.87019   1.87754
 Alpha virt. eigenvalues --    1.88784   1.89959   1.91527   1.91979   1.93567
 Alpha virt. eigenvalues --    1.94821   1.95781   1.96657   1.96855   1.97883
 Alpha virt. eigenvalues --    1.97980   1.98957   1.99138   1.99858   1.99917
 Alpha virt. eigenvalues --    2.00529   2.01118   2.01892   2.03581   2.04975
 Alpha virt. eigenvalues --    2.08027   2.09080   2.10506   2.13193   2.13476
 Alpha virt. eigenvalues --    2.14522   2.14724   2.15535   2.16401   2.16740
 Alpha virt. eigenvalues --    2.17763   2.18599   2.19057   2.19074   2.20354
 Alpha virt. eigenvalues --    2.21309   2.21780   2.23857   2.24573   2.24627
 Alpha virt. eigenvalues --    2.25102   2.26525   2.27506   2.27887   2.27953
 Alpha virt. eigenvalues --    2.27954   2.27963   2.28497   2.29759   2.32422
 Alpha virt. eigenvalues --    2.36291   2.36654   2.40010   2.40417   2.41111
 Alpha virt. eigenvalues --    2.41777   2.42968   2.46735   2.46739   2.46760
 Alpha virt. eigenvalues --    2.50558   2.52824   2.56521   2.57160   2.57619
 Alpha virt. eigenvalues --    2.58463   2.58956   2.61242   2.63068   2.63744
 Alpha virt. eigenvalues --    2.65900   2.66911   2.67683   2.68802   2.70841
 Alpha virt. eigenvalues --    2.72227   2.72351   2.73036   2.75241   2.75633
 Alpha virt. eigenvalues --    2.75838   2.77269   2.78018   2.78394   2.83656
 Alpha virt. eigenvalues --    2.86421   2.86901   2.89051   2.90709   2.93840
 Alpha virt. eigenvalues --    2.95483   2.96305   2.97799   3.00304   3.03159
 Alpha virt. eigenvalues --    3.05900   3.08381   3.16373   3.19072   3.20028
 Alpha virt. eigenvalues --    3.25862   3.39729   3.42954   3.46715   3.48960
 Alpha virt. eigenvalues --    3.51594   3.60362   5.55338   5.56217   5.57807
 Alpha virt. eigenvalues --    5.60454   5.61145   5.62902   5.64344  45.69712
 Alpha virt. eigenvalues --   45.95047  45.96048  63.00486
  Beta  occ. eigenvalues --  -14.44892 -14.44892 -14.44569 -14.44568 -10.27233
  Beta  occ. eigenvalues --  -10.27233 -10.27209 -10.27208 -10.27150 -10.27150
  Beta  occ. eigenvalues --  -10.26984 -10.26984 -10.26084 -10.26084 -10.23572
  Beta  occ. eigenvalues --  -10.23572 -10.23502 -10.23502 -10.23003 -10.23003
  Beta  occ. eigenvalues --  -10.22882 -10.22882 -10.22468 -10.22452 -10.22383
  Beta  occ. eigenvalues --  -10.20098  -3.87313  -2.39098  -2.38322  -2.34917
  Beta  occ. eigenvalues --   -1.05789  -1.05692  -0.96154  -0.95657  -0.87891
  Beta  occ. eigenvalues --   -0.87506  -0.85591  -0.79837  -0.78708  -0.77550
  Beta  occ. eigenvalues --   -0.77433  -0.75579  -0.74819  -0.72940  -0.72728
  Beta  occ. eigenvalues --   -0.66613  -0.64848  -0.64070  -0.63677  -0.62809
  Beta  occ. eigenvalues --   -0.61114  -0.58717  -0.57899  -0.56120  -0.53773
  Beta  occ. eigenvalues --   -0.52985  -0.51859  -0.49386  -0.49166  -0.49097
  Beta  occ. eigenvalues --   -0.47980  -0.47291  -0.46985  -0.46854  -0.45708
  Beta  occ. eigenvalues --   -0.45706  -0.44994  -0.44688  -0.44286  -0.43681
  Beta  occ. eigenvalues --   -0.42254  -0.42009  -0.41607  -0.39060  -0.38651
  Beta  occ. eigenvalues --   -0.38385  -0.37639  -0.37232  -0.36832  -0.36282
  Beta  occ. eigenvalues --   -0.36108  -0.34750  -0.34143  -0.33019  -0.31340
  Beta  occ. eigenvalues --   -0.31097  -0.29623  -0.26285  -0.26016  -0.25254
  Beta  occ. eigenvalues --   -0.24850  -0.23941  -0.22136  -0.21000  -0.20628
  Beta  occ. eigenvalues --   -0.19989
  Beta virt. eigenvalues --   -0.04710  -0.04146  -0.01566  -0.00272   0.00156
  Beta virt. eigenvalues --    0.01257   0.01755   0.02467   0.03780   0.05730
  Beta virt. eigenvalues --    0.06025   0.06085   0.08155   0.09177   0.09242
  Beta virt. eigenvalues --    0.10289   0.10722   0.12632   0.12994   0.14045
  Beta virt. eigenvalues --    0.14158   0.15393   0.15637   0.16028   0.16058
  Beta virt. eigenvalues --    0.16736   0.17033   0.17207   0.17746   0.18038
  Beta virt. eigenvalues --    0.18774   0.19129   0.19480   0.20076   0.20516
  Beta virt. eigenvalues --    0.21142   0.22192   0.23295   0.23316   0.23788
  Beta virt. eigenvalues --    0.24489   0.25574   0.26005   0.26045   0.27489
  Beta virt. eigenvalues --    0.27748   0.27790   0.28917   0.29403   0.30227
  Beta virt. eigenvalues --    0.31319   0.31621   0.32792   0.33754   0.34655
  Beta virt. eigenvalues --    0.34871   0.36787   0.37920   0.38179   0.39496
  Beta virt. eigenvalues --    0.39979   0.41346   0.42625   0.45284   0.45693
  Beta virt. eigenvalues --    0.46678   0.47082   0.48736   0.50725   0.51442
  Beta virt. eigenvalues --    0.51718   0.53022   0.54062   0.54297   0.56330
  Beta virt. eigenvalues --    0.56412   0.56564   0.56763   0.57628   0.58100
  Beta virt. eigenvalues --    0.58587   0.58800   0.58997   0.59987   0.60737
  Beta virt. eigenvalues --    0.61352   0.61381   0.61831   0.61865   0.63044
  Beta virt. eigenvalues --    0.63178   0.63334   0.63728   0.63912   0.64075
  Beta virt. eigenvalues --    0.64171   0.64662   0.65063   0.66136   0.66261
  Beta virt. eigenvalues --    0.67429   0.67777   0.67804   0.67885   0.68926
  Beta virt. eigenvalues --    0.71035   0.71978   0.72334   0.74392   0.75644
  Beta virt. eigenvalues --    0.76632   0.77068   0.77981   0.78700   0.80670
  Beta virt. eigenvalues --    0.80722   0.81620   0.81992   0.82699   0.83733
  Beta virt. eigenvalues --    0.84285   0.84513   0.84759   0.85564   0.85929
  Beta virt. eigenvalues --    0.87137   0.87435   0.87592   0.87836   0.89741
  Beta virt. eigenvalues --    0.91209   0.91287   0.91459   0.91652   0.91731
  Beta virt. eigenvalues --    0.93170   0.93499   0.94166   0.94355   0.95738
  Beta virt. eigenvalues --    0.96714   0.96911   0.97449   0.97611   0.98402
  Beta virt. eigenvalues --    0.98632   0.98670   1.00218   1.00376   1.01694
  Beta virt. eigenvalues --    1.02289   1.03205   1.04091   1.04677   1.06128
  Beta virt. eigenvalues --    1.07411   1.08743   1.09277   1.10116   1.11117
  Beta virt. eigenvalues --    1.14151   1.14981   1.15429   1.16325   1.16839
  Beta virt. eigenvalues --    1.18083   1.18667   1.19063   1.21270   1.23925
  Beta virt. eigenvalues --    1.24039   1.24691   1.25155   1.26639   1.27574
  Beta virt. eigenvalues --    1.29303   1.29450   1.30341   1.31094   1.31126
  Beta virt. eigenvalues --    1.33662   1.33872   1.35063   1.37209   1.37442
  Beta virt. eigenvalues --    1.38342   1.39097   1.40977   1.41323   1.42024
  Beta virt. eigenvalues --    1.42817   1.45095   1.45627   1.45941   1.46870
  Beta virt. eigenvalues --    1.47420   1.48384   1.49294   1.49492   1.50064
  Beta virt. eigenvalues --    1.50502   1.50535   1.51592   1.53304   1.56539
  Beta virt. eigenvalues --    1.57951   1.58393   1.60150   1.61207   1.64956
  Beta virt. eigenvalues --    1.65543   1.67216   1.69530   1.71907   1.74023
  Beta virt. eigenvalues --    1.74909   1.77721   1.80064   1.80124   1.80605
  Beta virt. eigenvalues --    1.82228   1.83494   1.84362   1.86415   1.87014
  Beta virt. eigenvalues --    1.87106   1.87838   1.88979   1.90163   1.91608
  Beta virt. eigenvalues --    1.92018   1.93624   1.94878   1.95827   1.96747
  Beta virt. eigenvalues --    1.96943   1.98061   1.98132   1.99061   1.99298
  Beta virt. eigenvalues --    2.00018   2.00142   2.00582   2.01149   2.01976
  Beta virt. eigenvalues --    2.03812   2.05150   2.08089   2.09151   2.10788
  Beta virt. eigenvalues --    2.13363   2.13796   2.14654   2.14988   2.15710
  Beta virt. eigenvalues --    2.16504   2.16847   2.17964   2.18743   2.19181
  Beta virt. eigenvalues --    2.19405   2.20467   2.21437   2.21911   2.24095
  Beta virt. eigenvalues --    2.24754   2.25033   2.25308   2.26718   2.27811
  Beta virt. eigenvalues --    2.28020   2.28084   2.28144   2.28182   2.28511
  Beta virt. eigenvalues --    2.30004   2.32579   2.36631   2.37122   2.40177
  Beta virt. eigenvalues --    2.40591   2.41224   2.43382   2.44405   2.46805
  Beta virt. eigenvalues --    2.47301   2.49413   2.50674   2.52943   2.56855
  Beta virt. eigenvalues --    2.57364   2.57981   2.58837   2.59008   2.61317
  Beta virt. eigenvalues --    2.63357   2.63897   2.66171   2.67031   2.67743
  Beta virt. eigenvalues --    2.68952   2.71193   2.72398   2.72573   2.73172
  Beta virt. eigenvalues --    2.75437   2.75741   2.75950   2.77490   2.78019
  Beta virt. eigenvalues --    2.78632   2.83847   2.86460   2.87271   2.89170
  Beta virt. eigenvalues --    2.90917   2.93985   2.96058   2.96774   2.97968
  Beta virt. eigenvalues --    3.02171   3.03564   3.06111   3.08936   3.16408
  Beta virt. eigenvalues --    3.19406   3.20437   3.25827   3.40771   3.43135
  Beta virt. eigenvalues --    3.46729   3.48962   3.52090   3.62340   5.61150
  Beta virt. eigenvalues --    5.62857   5.62972   5.64452   5.64906   5.67118
  Beta virt. eigenvalues --    5.69026  45.79745  46.01126  46.03112  63.06180
          Condensed to atoms (all electrons):
               1          2          3          4          5          6
     1  C    5.266601   0.489727  -0.076896  -0.041711  -0.076896   0.489727
     2  C    0.489727   4.633422   0.539538  -0.000682  -0.039705  -0.013249
     3  C   -0.076896   0.539538   5.031857   0.518234  -0.044729  -0.039705
     4  C   -0.041711  -0.000682   0.518234   4.914199   0.518234  -0.000682
     5  C   -0.076896  -0.039705  -0.044729   0.518234   5.031858   0.539539
     6  C    0.489727  -0.013249  -0.039705  -0.000682   0.539539   4.633422
     7  H    0.004441  -0.036523   0.352341  -0.039329   0.004100   0.000356
     8  H    0.001136   0.002602  -0.035661   0.365924  -0.035661   0.002602
     9  H    0.004441   0.000356   0.004100  -0.039329   0.352340  -0.036523
    10  C    0.007914   0.000003   0.000000   0.000116  -0.006556  -0.042588
    11  C    0.018474   0.003408  -0.000133   0.000035   0.003497  -0.071708
    12  C   -0.000877  -0.000001   0.000000  -0.000000   0.000152   0.007266
    13  C    0.000157   0.000003  -0.000002   0.000074   0.001579  -0.004996
    14  C   -0.000001  -0.000000   0.000000  -0.000000   0.000002  -0.000030
    15  C    0.000002  -0.000000   0.000000  -0.000001   0.000082   0.000068
    16  H   -0.000038   0.000001   0.000001   0.000125  -0.000056   0.000509
    17  C    0.000000   0.000000  -0.000000   0.000000  -0.000001  -0.000005
    18  H   -0.000000   0.000000   0.000000   0.000000  -0.000000   0.000002
    19  H   -0.000000   0.000000  -0.000000   0.000000   0.000002  -0.000002
    20  H   -0.000000  -0.000000   0.000000  -0.000000  -0.000000  -0.000000
    21  C    0.007914  -0.042588  -0.006556   0.000116   0.000000   0.000003
    22  C    0.018474  -0.071708   0.003497   0.000035  -0.000133   0.003408
    23  C   -0.000877   0.007266   0.000152  -0.000000   0.000000  -0.000001
    24  C    0.000157  -0.004996   0.001579   0.000074  -0.000002   0.000003
    25  C   -0.000001  -0.000030   0.000002  -0.000000   0.000000  -0.000000
    26  C    0.000002   0.000068   0.000082  -0.000001   0.000000  -0.000000
    27  H   -0.000038   0.000509  -0.000056   0.000125   0.000001   0.000001
    28  C    0.000000  -0.000005  -0.000001   0.000000  -0.000000   0.000000
    29  H   -0.000000   0.000002  -0.000000   0.000000   0.000000   0.000000
    30  H   -0.000000  -0.000002   0.000002   0.000000  -0.000000   0.000000
    31  H   -0.000000  -0.000000  -0.000000  -0.000000   0.000000  -0.000000
    32  N   -0.034150   0.256306  -0.064923   0.003856   0.000910   0.006821
    33  N    0.001222   0.006568  -0.000160   0.000001   0.000000  -0.000050
    34  N   -0.034150   0.006821   0.000910   0.003856  -0.064923   0.256305
    35  N    0.001222  -0.000050   0.000000   0.000001  -0.000160   0.006568
    36  C   -0.000019   0.000000  -0.000000  -0.000000   0.000002  -0.000050
    37  H   -0.000000  -0.000000   0.000000   0.000000  -0.000000   0.000004
    38  H   -0.000000  -0.000000   0.000000   0.000000  -0.000000   0.000004
    39  H   -0.000023   0.000001   0.000000  -0.000000  -0.000000  -0.000015
    40  C   -0.000019  -0.000050   0.000002  -0.000000  -0.000000   0.000000
    41  H   -0.000000   0.000004  -0.000000   0.000000   0.000000  -0.000000
    42  H   -0.000000   0.000004  -0.000000   0.000000   0.000000  -0.000000
    43  H   -0.000023  -0.000015  -0.000000  -0.000000   0.000000   0.000001
    44  Co   0.264556  -0.071545   0.003022   0.002488   0.003022  -0.071545
               7          8          9         10         11         12
     1  C    0.004441   0.001136   0.004441   0.007914   0.018474  -0.000877
     2  C   -0.036523   0.002602   0.000356   0.000003   0.003408  -0.000001
     3  C    0.352341  -0.035661   0.004100   0.000000  -0.000133   0.000000
     4  C   -0.039329   0.365924  -0.039329   0.000116   0.000035  -0.000000
     5  C    0.004100  -0.035661   0.352340  -0.006556   0.003497   0.000152
     6  C    0.000356   0.002602  -0.036523  -0.042588  -0.071708   0.007266
     7  H    0.543013  -0.004271  -0.000117  -0.000000  -0.000000   0.000000
     8  H   -0.004271   0.542040  -0.004271  -0.000002   0.000001  -0.000000
     9  H   -0.000117  -0.004271   0.543013   0.000333  -0.000149  -0.000031
    10  C   -0.000000  -0.000002   0.000333   4.644110  -0.073979   0.518590
    11  C   -0.000000   0.000001  -0.000149  -0.073979   4.823040  -0.056233
    12  C    0.000000  -0.000000  -0.000031   0.518590  -0.056233   4.653859
    13  C   -0.000000   0.000003   0.000139   0.531316   0.004872  -0.055733
    14  C   -0.000000   0.000000   0.000000  -0.049501   0.005777   0.532192
    15  C   -0.000000   0.000000   0.000126  -0.007050  -0.000082  -0.038210
    16  H   -0.000000  -0.000010   0.006249  -0.035102  -0.000158   0.003783
    17  C   -0.000000  -0.000000   0.000001  -0.039736  -0.000081  -0.007078
    18  H    0.000000  -0.000000  -0.000000   0.003900  -0.000215  -0.038596
    19  H    0.000000   0.000000  -0.000009   0.002043   0.000003   0.000931
    20  H   -0.000000  -0.000000   0.000000   0.000916   0.000003   0.002238
    21  C    0.000333  -0.000002  -0.000000  -0.000000  -0.000009   0.000000
    22  C   -0.000149   0.000001  -0.000000  -0.000009  -0.018435  -0.000003
    23  C   -0.000031  -0.000000   0.000000   0.000000  -0.000003  -0.000000
    24  C    0.000139   0.000003  -0.000000   0.000000   0.000000  -0.000000
    25  C    0.000000   0.000000  -0.000000   0.000000   0.000000   0.000000
    26  C    0.000126   0.000000  -0.000000  -0.000000  -0.000000  -0.000000
    27  H    0.006249  -0.000010  -0.000000   0.000000   0.000000  -0.000000
    28  C    0.000001  -0.000000  -0.000000   0.000000  -0.000000  -0.000000
    29  H   -0.000000  -0.000000   0.000000   0.000000   0.000000  -0.000000
    30  H   -0.000009   0.000000   0.000000   0.000000   0.000000   0.000000
    31  H    0.000000  -0.000000  -0.000000   0.000000   0.000000   0.000000
    32  N   -0.004578  -0.000100   0.000007   0.000000   0.000401   0.000000
    33  N    0.000002  -0.000000  -0.000000  -0.000000   0.000024   0.000000
    34  N    0.000007  -0.000100  -0.004578   0.266415   0.353505  -0.041355
    35  N   -0.000000  -0.000000   0.000002  -0.044450   0.314808   0.274616
    36  C   -0.000000   0.000000  -0.000000   0.005877  -0.042661  -0.047788
    37  H    0.000000  -0.000000  -0.000000  -0.000143   0.000668  -0.001406
    38  H    0.000000  -0.000000  -0.000000  -0.000143   0.000665  -0.001403
    39  H    0.000000   0.000000   0.000000   0.000014  -0.000270   0.002646
    40  C   -0.000000   0.000000  -0.000000   0.000000   0.000019   0.000000
    41  H   -0.000000  -0.000000   0.000000  -0.000000  -0.000000  -0.000000
    42  H   -0.000000  -0.000000   0.000000  -0.000000  -0.000000  -0.000000
    43  H    0.000000   0.000000   0.000000   0.000000  -0.000001  -0.000000
    44  Co  -0.000420   0.000174  -0.000420   0.007414   0.360298   0.005206
              13         14         15         16         17         18
     1  C    0.000157  -0.000001   0.000002  -0.000038   0.000000  -0.000000
     2  C    0.000003  -0.000000  -0.000000   0.000001   0.000000   0.000000
     3  C   -0.000002   0.000000   0.000000   0.000001  -0.000000   0.000000
     4  C    0.000074  -0.000000  -0.000001   0.000125   0.000000   0.000000
     5  C    0.001579   0.000002   0.000082  -0.000056  -0.000001  -0.000000
     6  C   -0.004996  -0.000030   0.000068   0.000509  -0.000005   0.000002
     7  H   -0.000000  -0.000000  -0.000000  -0.000000  -0.000000   0.000000
     8  H    0.000003   0.000000   0.000000  -0.000010  -0.000000  -0.000000
     9  H    0.000139   0.000000   0.000126   0.006249   0.000001  -0.000000
    10  C    0.531316  -0.049501  -0.007050  -0.035102  -0.039736   0.003900
    11  C    0.004872   0.005777  -0.000082  -0.000158  -0.000081  -0.000215
    12  C   -0.055733   0.532192  -0.038210   0.003783  -0.007078  -0.038596
    13  C    5.019627  -0.043898   0.515237   0.355900  -0.035343   0.000259
    14  C   -0.043898   5.028430  -0.038994   0.000456   0.518815   0.362452
    15  C    0.515237  -0.038994   4.898841  -0.036721   0.553511   0.003972
    16  H    0.355900   0.000456  -0.036721   0.521586   0.003757   0.000014
    17  C   -0.035343   0.518815   0.553511   0.003757   4.892308  -0.036208
    18  H    0.000259   0.362452   0.003972   0.000014  -0.036208   0.537586
    19  H   -0.036499   0.004055   0.368962  -0.004227  -0.036165  -0.000149
    20  H    0.003970  -0.037000  -0.035946  -0.000149   0.368374  -0.004283
    21  C    0.000000   0.000000  -0.000000   0.000000   0.000000   0.000000
    22  C    0.000000   0.000000  -0.000000   0.000000  -0.000000   0.000000
    23  C   -0.000000   0.000000  -0.000000  -0.000000  -0.000000  -0.000000
    24  C    0.000000   0.000000  -0.000000   0.000000   0.000000   0.000000
    25  C    0.000000  -0.000000   0.000000  -0.000000  -0.000000   0.000000
    26  C   -0.000000   0.000000  -0.000000   0.000000   0.000000   0.000000
    27  H    0.000000  -0.000000   0.000000   0.000000   0.000000  -0.000000
    28  C    0.000000  -0.000000   0.000000   0.000000   0.000000   0.000000
    29  H    0.000000   0.000000   0.000000  -0.000000   0.000000  -0.000000
    30  H   -0.000000  -0.000000   0.000000  -0.000000   0.000000   0.000000
    31  H   -0.000000   0.000000   0.000000  -0.000000   0.000000   0.000000
    32  N   -0.000000   0.000000   0.000000   0.000000   0.000000  -0.000000
    33  N    0.000000  -0.000000   0.000000   0.000000   0.000000  -0.000000
    34  N   -0.075300   0.009034   0.005118  -0.004632  -0.000196  -0.000091
    35  N    0.009306  -0.083303  -0.000120  -0.000102   0.005375  -0.007087
    36  C   -0.000120  -0.002786   0.000009   0.000003  -0.000117   0.004077
    37  H   -0.000009   0.002724  -0.000002  -0.000000  -0.000005   0.000543
    38  H   -0.000009   0.002722  -0.000002  -0.000000  -0.000005   0.000541
    39  H    0.000006   0.000033  -0.000000  -0.000000   0.000001  -0.000036
    40  C    0.000000   0.000000  -0.000000   0.000000   0.000000  -0.000000
    41  H    0.000000   0.000000  -0.000000   0.000000  -0.000000  -0.000000
    42  H    0.000000   0.000000  -0.000000   0.000000  -0.000000  -0.000000
    43  H    0.000000   0.000000  -0.000000   0.000000  -0.000000   0.000000
    44  Co  -0.000535  -0.000421   0.000002   0.000060  -0.000003   0.000013
              19         20         21         22         23         24
     1  C   -0.000000  -0.000000   0.007914   0.018474  -0.000877   0.000157
     2  C    0.000000  -0.000000  -0.042588  -0.071708   0.007266  -0.004996
     3  C   -0.000000   0.000000  -0.006556   0.003497   0.000152   0.001579
     4  C    0.000000  -0.000000   0.000116   0.000035  -0.000000   0.000074
     5  C    0.000002  -0.000000   0.000000  -0.000133   0.000000  -0.000002
     6  C   -0.000002  -0.000000   0.000003   0.003408  -0.000001   0.000003
     7  H    0.000000  -0.000000   0.000333  -0.000149  -0.000031   0.000139
     8  H    0.000000  -0.000000  -0.000002   0.000001  -0.000000   0.000003
     9  H   -0.000009   0.000000  -0.000000  -0.000000   0.000000  -0.000000
    10  C    0.002043   0.000916  -0.000000  -0.000009   0.000000   0.000000
    11  C    0.000003   0.000003  -0.000009  -0.018435  -0.000003   0.000000
    12  C    0.000931   0.002238   0.000000  -0.000003  -0.000000  -0.000000
    13  C   -0.036499   0.003970   0.000000   0.000000  -0.000000   0.000000
    14  C    0.004055  -0.037000   0.000000   0.000000   0.000000   0.000000
    15  C    0.368962  -0.035946  -0.000000  -0.000000  -0.000000  -0.000000
    16  H   -0.004227  -0.000149   0.000000   0.000000  -0.000000   0.000000
    17  C   -0.036165   0.368374   0.000000  -0.000000  -0.000000   0.000000
    18  H   -0.000149  -0.004283   0.000000   0.000000  -0.000000   0.000000
    19  H    0.535787  -0.004545   0.000000   0.000000   0.000000  -0.000000
    20  H   -0.004545   0.537605   0.000000   0.000000   0.000000  -0.000000
    21  C    0.000000   0.000000   4.644105  -0.073978   0.518591   0.531317
    22  C    0.000000   0.000000  -0.073978   4.823043  -0.056234   0.004872
    23  C    0.000000   0.000000   0.518591  -0.056234   4.653862  -0.055733
    24  C   -0.000000  -0.000000   0.531317   0.004872  -0.055733   5.019631
    25  C   -0.000000   0.000000  -0.049501   0.005777   0.532191  -0.043898
    26  C    0.000000   0.000000  -0.007050  -0.000082  -0.038210   0.515235
    27  H   -0.000000  -0.000000  -0.035102  -0.000158   0.003783   0.355900
    28  C    0.000000   0.000000  -0.039736  -0.000081  -0.007078  -0.035343
    29  H    0.000000   0.000000   0.003900  -0.000215  -0.038596   0.000259
    30  H    0.000000   0.000000   0.002043   0.000003   0.000931  -0.036499
    31  H    0.000000   0.000000   0.000916   0.000003   0.002238   0.003970
    32  N   -0.000000   0.000000   0.266414   0.353505  -0.041355  -0.075300
    33  N   -0.000000  -0.000000  -0.044450   0.314806   0.274617   0.009306
    34  N   -0.000088   0.000004   0.000000   0.000401   0.000000  -0.000000
    35  N    0.000003  -0.000098  -0.000000   0.000024   0.000000   0.000000
    36  C   -0.000000  -0.000002   0.000000   0.000019   0.000000   0.000000
    37  H   -0.000000  -0.000000  -0.000000  -0.000000  -0.000000   0.000000
    38  H   -0.000000  -0.000000  -0.000000  -0.000000  -0.000000   0.000000
    39  H   -0.000000  -0.000000   0.000000  -0.000001  -0.000000   0.000000
    40  C    0.000000  -0.000000   0.005877  -0.042660  -0.047788  -0.000120
    41  H   -0.000000   0.000000  -0.000143   0.000665  -0.001403  -0.000009
    42  H   -0.000000   0.000000  -0.000143   0.000668  -0.001406  -0.000009
    43  H    0.000000   0.000000   0.000014  -0.000270   0.002646   0.000006
    44  Co   0.000018  -0.000006   0.007414   0.360299   0.005206  -0.000535
              25         26         27         28         29         30
     1  C   -0.000001   0.000002  -0.000038   0.000000  -0.000000  -0.000000
     2  C   -0.000030   0.000068   0.000509  -0.000005   0.000002  -0.000002
     3  C    0.000002   0.000082  -0.000056  -0.000001  -0.000000   0.000002
     4  C   -0.000000  -0.000001   0.000125   0.000000   0.000000   0.000000
     5  C    0.000000   0.000000   0.000001  -0.000000   0.000000  -0.000000
     6  C   -0.000000  -0.000000   0.000001   0.000000   0.000000   0.000000
     7  H    0.000000   0.000126   0.006249   0.000001  -0.000000  -0.000009
     8  H    0.000000   0.000000  -0.000010  -0.000000  -0.000000   0.000000
     9  H   -0.000000  -0.000000  -0.000000  -0.000000   0.000000   0.000000
    10  C    0.000000  -0.000000   0.000000   0.000000   0.000000   0.000000
    11  C    0.000000  -0.000000   0.000000  -0.000000   0.000000   0.000000
    12  C    0.000000  -0.000000  -0.000000  -0.000000  -0.000000   0.000000
    13  C    0.000000  -0.000000   0.000000   0.000000   0.000000  -0.000000
    14  C   -0.000000   0.000000  -0.000000  -0.000000   0.000000  -0.000000
    15  C    0.000000  -0.000000   0.000000   0.000000   0.000000   0.000000
    16  H   -0.000000   0.000000   0.000000   0.000000  -0.000000  -0.000000
    17  C   -0.000000   0.000000   0.000000   0.000000   0.000000   0.000000
    18  H    0.000000   0.000000  -0.000000   0.000000  -0.000000   0.000000
    19  H   -0.000000   0.000000  -0.000000   0.000000   0.000000   0.000000
    20  H    0.000000   0.000000  -0.000000   0.000000   0.000000   0.000000
    21  C   -0.049501  -0.007050  -0.035102  -0.039736   0.003900   0.002043
    22  C    0.005777  -0.000082  -0.000158  -0.000081  -0.000215   0.000003
    23  C    0.532191  -0.038210   0.003783  -0.007078  -0.038596   0.000931
    24  C   -0.043898   0.515235   0.355900  -0.035343   0.000259  -0.036499
    25  C    5.028426  -0.038995   0.000456   0.518817   0.362453   0.004055
    26  C   -0.038995   4.898842  -0.036721   0.553512   0.003972   0.368963
    27  H    0.000456  -0.036721   0.521586   0.003757   0.000014  -0.004227
    28  C    0.518817   0.553512   0.003757   4.892306  -0.036208  -0.036165
    29  H    0.362453   0.003972   0.000014  -0.036208   0.537586  -0.000149
    30  H    0.004055   0.368963  -0.004227  -0.036165  -0.000149   0.535787
    31  H   -0.037000  -0.035946  -0.000149   0.368373  -0.004283  -0.004545
    32  N    0.009034   0.005118  -0.004632  -0.000196  -0.000091  -0.000088
    33  N   -0.083303  -0.000120  -0.000102   0.005375  -0.007087   0.000003
    34  N    0.000000   0.000000   0.000000   0.000000  -0.000000  -0.000000
    35  N   -0.000000   0.000000   0.000000   0.000000  -0.000000  -0.000000
    36  C    0.000000  -0.000000   0.000000   0.000000  -0.000000   0.000000
    37  H    0.000000  -0.000000   0.000000  -0.000000  -0.000000  -0.000000
    38  H    0.000000  -0.000000   0.000000  -0.000000  -0.000000  -0.000000
    39  H    0.000000  -0.000000   0.000000  -0.000000   0.000000   0.000000
    40  C   -0.002786   0.000009   0.000003  -0.000117   0.004077  -0.000000
    41  H    0.002722  -0.000002  -0.000000  -0.000005   0.000541  -0.000000
    42  H    0.002724  -0.000002  -0.000000  -0.000005   0.000543  -0.000000
    43  H    0.000033  -0.000000  -0.000000   0.000001  -0.000036  -0.000000
    44  Co  -0.000421   0.000002   0.000060  -0.000003   0.000013   0.000018
              31         32         33         34         35         36
     1  C   -0.000000  -0.034150   0.001222  -0.034150   0.001222  -0.000019
     2  C   -0.000000   0.256306   0.006568   0.006821  -0.000050   0.000000
     3  C   -0.000000  -0.064923  -0.000160   0.000910   0.000000  -0.000000
     4  C   -0.000000   0.003856   0.000001   0.003856   0.000001  -0.000000
     5  C    0.000000   0.000910   0.000000  -0.064923  -0.000160   0.000002
     6  C   -0.000000   0.006821  -0.000050   0.256305   0.006568  -0.000050
     7  H    0.000000  -0.004578   0.000002   0.000007  -0.000000  -0.000000
     8  H   -0.000000  -0.000100  -0.000000  -0.000100  -0.000000   0.000000
     9  H   -0.000000   0.000007  -0.000000  -0.004578   0.000002  -0.000000
    10  C    0.000000   0.000000  -0.000000   0.266415  -0.044450   0.005877
    11  C    0.000000   0.000401   0.000024   0.353505   0.314808  -0.042661
    12  C    0.000000   0.000000   0.000000  -0.041355   0.274616  -0.047788
    13  C   -0.000000  -0.000000   0.000000  -0.075300   0.009306  -0.000120
    14  C    0.000000   0.000000  -0.000000   0.009034  -0.083303  -0.002786
    15  C    0.000000   0.000000   0.000000   0.005118  -0.000120   0.000009
    16  H   -0.000000   0.000000   0.000000  -0.004632  -0.000102   0.000003
    17  C    0.000000   0.000000   0.000000  -0.000196   0.005375  -0.000117
    18  H    0.000000  -0.000000  -0.000000  -0.000091  -0.007087   0.004077
    19  H    0.000000  -0.000000  -0.000000  -0.000088   0.000003  -0.000000
    20  H    0.000000   0.000000  -0.000000   0.000004  -0.000098  -0.000002
    21  C    0.000916   0.266414  -0.044450   0.000000  -0.000000   0.000000
    22  C    0.000003   0.353505   0.314806   0.000401   0.000024   0.000019
    23  C    0.002238  -0.041355   0.274617   0.000000   0.000000   0.000000
    24  C    0.003970  -0.075300   0.009306  -0.000000   0.000000   0.000000
    25  C   -0.037000   0.009034  -0.083303   0.000000  -0.000000   0.000000
    26  C   -0.035946   0.005118  -0.000120   0.000000   0.000000  -0.000000
    27  H   -0.000149  -0.004632  -0.000102   0.000000   0.000000   0.000000
    28  C    0.368373  -0.000196   0.005375   0.000000   0.000000   0.000000
    29  H   -0.004283  -0.000091  -0.007087  -0.000000  -0.000000  -0.000000
    30  H   -0.004545  -0.000088   0.000003  -0.000000  -0.000000   0.000000
    31  H    0.537607   0.000004  -0.000098   0.000000  -0.000000  -0.000000
    32  N    0.000004   7.177762  -0.061766  -0.000206   0.000001  -0.000000
    33  N   -0.000098  -0.061766   7.065732   0.000001  -0.000000  -0.000000
    34  N    0.000000  -0.000206   0.000001   7.177762  -0.061766   0.004994
    35  N   -0.000000   0.000001  -0.000000  -0.061766   7.065735   0.297063
    36  C   -0.000000  -0.000000  -0.000000   0.004994   0.297063   5.047779
    37  H    0.000000   0.000000  -0.000000  -0.000067  -0.041641   0.377997
    38  H    0.000000   0.000000  -0.000000  -0.000067  -0.041646   0.378000
    39  H    0.000000  -0.000000   0.000001   0.000141  -0.032563   0.377566
    40  C   -0.000002   0.004994   0.297064  -0.000000  -0.000000   0.000000
    41  H   -0.000000  -0.000067  -0.041647   0.000000  -0.000000  -0.000000
    42  H   -0.000000  -0.000067  -0.041640   0.000000  -0.000000  -0.000000
    43  H   -0.000000   0.000141  -0.032563  -0.000000   0.000001  -0.000001
    44  Co  -0.000006  -0.084166  -0.052029  -0.084166  -0.052029  -0.002807
              37         38         39         40         41         42
     1  C   -0.000000  -0.000000  -0.000023  -0.000019  -0.000000  -0.000000
     2  C   -0.000000  -0.000000   0.000001  -0.000050   0.000004   0.000004
     3  C    0.000000   0.000000   0.000000   0.000002  -0.000000  -0.000000
     4  C    0.000000   0.000000  -0.000000  -0.000000   0.000000   0.000000
     5  C   -0.000000  -0.000000  -0.000000  -0.000000   0.000000   0.000000
     6  C    0.000004   0.000004  -0.000015   0.000000  -0.000000  -0.000000
     7  H    0.000000   0.000000   0.000000  -0.000000  -0.000000  -0.000000
     8  H   -0.000000  -0.000000   0.000000   0.000000  -0.000000  -0.000000
     9  H   -0.000000  -0.000000   0.000000  -0.000000   0.000000   0.000000
    10  C   -0.000143  -0.000143   0.000014   0.000000  -0.000000  -0.000000
    11  C    0.000668   0.000665  -0.000270   0.000019  -0.000000  -0.000000
    12  C   -0.001406  -0.001403   0.002646   0.000000  -0.000000  -0.000000
    13  C   -0.000009  -0.000009   0.000006   0.000000   0.000000   0.000000
    14  C    0.002724   0.002722   0.000033   0.000000   0.000000   0.000000
    15  C   -0.000002  -0.000002  -0.000000  -0.000000  -0.000000  -0.000000
    16  H   -0.000000  -0.000000  -0.000000   0.000000   0.000000   0.000000
    17  C   -0.000005  -0.000005   0.000001   0.000000  -0.000000  -0.000000
    18  H    0.000543   0.000541  -0.000036  -0.000000  -0.000000  -0.000000
    19  H   -0.000000  -0.000000  -0.000000   0.000000  -0.000000  -0.000000
    20  H   -0.000000  -0.000000  -0.000000  -0.000000   0.000000   0.000000
    21  C   -0.000000  -0.000000   0.000000   0.005877  -0.000143  -0.000143
    22  C   -0.000000  -0.000000  -0.000001  -0.042660   0.000665   0.000668
    23  C   -0.000000  -0.000000  -0.000000  -0.047788  -0.001403  -0.001406
    24  C    0.000000   0.000000   0.000000  -0.000120  -0.000009  -0.000009
    25  C    0.000000   0.000000   0.000000  -0.002786   0.002722   0.002724
    26  C   -0.000000  -0.000000  -0.000000   0.000009  -0.000002  -0.000002
    27  H    0.000000   0.000000   0.000000   0.000003  -0.000000  -0.000000
    28  C   -0.000000  -0.000000  -0.000000  -0.000117  -0.000005  -0.000005
    29  H   -0.000000  -0.000000   0.000000   0.004077   0.000541   0.000543
    30  H   -0.000000  -0.000000   0.000000  -0.000000  -0.000000  -0.000000
    31  H    0.000000   0.000000   0.000000  -0.000002  -0.000000  -0.000000
    32  N    0.000000   0.000000  -0.000000   0.004994  -0.000067  -0.000067
    33  N   -0.000000  -0.000000   0.000001   0.297064  -0.041647  -0.041640
    34  N   -0.000067  -0.000067   0.000141  -0.000000   0.000000   0.000000
    35  N   -0.041641  -0.041646  -0.032563  -0.000000  -0.000000  -0.000000
    36  C    0.377997   0.378000   0.377566   0.000000  -0.000000  -0.000000
    37  H    0.523520  -0.040386  -0.025120  -0.000000  -0.000000   0.000000
    38  H   -0.040386   0.523519  -0.025128  -0.000000   0.000000  -0.000000
    39  H   -0.025120  -0.025128   0.482212  -0.000001   0.000000   0.000000
    40  C   -0.000000  -0.000000  -0.000001   5.047779   0.378000   0.377997
    41  H   -0.000000   0.000000   0.000000   0.378000   0.523520  -0.040387
    42  H    0.000000  -0.000000   0.000000   0.377997  -0.040387   0.523521
    43  H    0.000000   0.000000  -0.000024   0.377566  -0.025128  -0.025120
    44  Co   0.000974   0.000979   0.006991  -0.002807   0.000979   0.000974
              43         44
     1  C   -0.000023   0.264556
     2  C   -0.000015  -0.071545
     3  C   -0.000000   0.003022
     4  C   -0.000000   0.002488
     5  C    0.000000   0.003022
     6  C    0.000001  -0.071545
     7  H    0.000000  -0.000420
     8  H    0.000000   0.000174
     9  H    0.000000  -0.000420
    10  C    0.000000   0.007414
    11  C   -0.000001   0.360298
    12  C   -0.000000   0.005206
    13  C    0.000000  -0.000535
    14  C    0.000000  -0.000421
    15  C   -0.000000   0.000002
    16  H    0.000000   0.000060
    17  C   -0.000000  -0.000003
    18  H    0.000000   0.000013
    19  H    0.000000   0.000018
    20  H    0.000000  -0.000006
    21  C    0.000014   0.007414
    22  C   -0.000270   0.360299
    23  C    0.002646   0.005206
    24  C    0.000006  -0.000535
    25  C    0.000033  -0.000421
    26  C   -0.000000   0.000002
    27  H   -0.000000   0.000060
    28  C    0.000001  -0.000003
    29  H   -0.000036   0.000013
    30  H   -0.000000   0.000018
    31  H   -0.000000  -0.000006
    32  N    0.000141  -0.084166
    33  N   -0.032563  -0.052029
    34  N   -0.000000  -0.084166
    35  N    0.000001  -0.052029
    36  C   -0.000001  -0.002807
    37  H    0.000000   0.000974
    38  H    0.000000   0.000979
    39  H   -0.000024   0.006991
    40  C    0.377566  -0.002807
    41  H   -0.025128   0.000979
    42  H   -0.025120   0.000974
    43  H    0.482213   0.006991
    44  Co   0.006991  16.269207
          Atomic-Atomic Spin Densities.
               1          2          3          4          5          6
     1  C   -0.187629  -0.013842   0.003207   0.002280   0.003207  -0.013842
     2  C   -0.013842   0.128005   0.007485  -0.005139   0.000919   0.004294
     3  C    0.003207   0.007485  -0.090078  -0.007103   0.000788   0.000919
     4  C    0.002280  -0.005139  -0.007103   0.165217  -0.007104  -0.005139
     5  C    0.003207   0.000919   0.000788  -0.007104  -0.090077   0.007485
     6  C   -0.013842   0.004294   0.000919  -0.005139   0.007485   0.128004
     7  H   -0.000156  -0.000322   0.001988   0.000180   0.000030  -0.000067
     8  H   -0.000064   0.000009   0.000093  -0.000063   0.000093   0.000009
     9  H   -0.000156  -0.000067   0.000030   0.000181   0.001988  -0.000322
    10  C   -0.000162  -0.000021   0.000001   0.000013   0.000319  -0.000265
    11  C    0.004915  -0.001003  -0.000004   0.000036  -0.000217  -0.006695
    12  C    0.000029   0.000000  -0.000000  -0.000000  -0.000010   0.000048
    13  C    0.000021  -0.000000  -0.000000   0.000008  -0.000204  -0.000354
    14  C    0.000001   0.000000  -0.000000   0.000000  -0.000001  -0.000017
    15  C   -0.000000   0.000000   0.000000  -0.000000   0.000003   0.000010
    16  H   -0.000001  -0.000000  -0.000000   0.000001   0.000036   0.000041
    17  C   -0.000000  -0.000000   0.000000  -0.000000   0.000000   0.000001
    18  H    0.000000   0.000000  -0.000000   0.000000   0.000000   0.000000
    19  H    0.000000   0.000000  -0.000000  -0.000000  -0.000000   0.000000
    20  H    0.000000   0.000000  -0.000000  -0.000000  -0.000000  -0.000000
    21  C   -0.000162  -0.000265   0.000319   0.000013   0.000001  -0.000021
    22  C    0.004915  -0.006696  -0.000217   0.000036  -0.000004  -0.001003
    23  C    0.000029   0.000048  -0.000010  -0.000000  -0.000000   0.000000
    24  C    0.000021  -0.000354  -0.000204   0.000008  -0.000000  -0.000000
    25  C    0.000001  -0.000017  -0.000001   0.000000  -0.000000   0.000000
    26  C   -0.000000   0.000010   0.000003  -0.000000   0.000000   0.000000
    27  H   -0.000001   0.000041   0.000036   0.000001  -0.000000  -0.000000
    28  C   -0.000000   0.000001   0.000000  -0.000000   0.000000  -0.000000
    29  H    0.000000   0.000000   0.000000   0.000000  -0.000000   0.000000
    30  H    0.000000   0.000000  -0.000000  -0.000000  -0.000000   0.000000
    31  H    0.000000  -0.000000  -0.000000  -0.000000  -0.000000   0.000000
    32  N    0.000052   0.011541   0.002582  -0.000022   0.000020  -0.000032
    33  N   -0.000533   0.000418  -0.000007  -0.000000  -0.000000   0.000004
    34  N    0.000052  -0.000032   0.000020  -0.000022   0.002582   0.011540
    35  N   -0.000533   0.000004  -0.000000  -0.000000  -0.000007   0.000418
    36  C   -0.000009   0.000000  -0.000000  -0.000000  -0.000000  -0.000006
    37  H    0.000001  -0.000000  -0.000000   0.000000  -0.000000  -0.000001
    38  H    0.000001  -0.000000  -0.000000   0.000000  -0.000000  -0.000001
    39  H    0.000010   0.000000   0.000000   0.000000   0.000000   0.000000
    40  C   -0.000009  -0.000006  -0.000000  -0.000000  -0.000000   0.000000
    41  H    0.000001  -0.000001  -0.000000   0.000000  -0.000000  -0.000000
    42  H    0.000001  -0.000001  -0.000000   0.000000  -0.000000  -0.000000
    43  H    0.000010   0.000000   0.000000   0.000000   0.000000   0.000000
    44  Co   0.032805  -0.012623  -0.001644   0.001806  -0.001644  -0.012623
               7          8          9         10         11         12
     1  C   -0.000156  -0.000064  -0.000156  -0.000162   0.004915   0.000029
     2  C   -0.000322   0.000009  -0.000067  -0.000021  -0.001003   0.000000
     3  C    0.001988   0.000093   0.000030   0.000001  -0.000004  -0.000000
     4  C    0.000180  -0.000063   0.000181   0.000013   0.000036  -0.000000
     5  C    0.000030   0.000093   0.001988   0.000319  -0.000217  -0.000010
     6  C   -0.000067   0.000009  -0.000322  -0.000265  -0.006695   0.000048
     7  H   -0.000218  -0.000001  -0.000007  -0.000000   0.000000   0.000000
     8  H   -0.000001  -0.007746  -0.000001  -0.000000   0.000000   0.000000
     9  H   -0.000007  -0.000001  -0.000218  -0.000042   0.000012   0.000001
    10  C   -0.000000  -0.000000  -0.000042  -0.007056   0.001323  -0.001861
    11  C    0.000000   0.000000   0.000012   0.001323   0.190766  -0.001097
    12  C    0.000000   0.000000   0.000001  -0.001861  -0.001097  -0.025550
    13  C    0.000000   0.000000   0.000044   0.003689   0.000298   0.000605
    14  C    0.000000   0.000000   0.000000   0.000737   0.000496   0.000845
    15  C    0.000000   0.000000   0.000004  -0.000682  -0.000026   0.000159
    16  H   -0.000000  -0.000000  -0.000090  -0.000142  -0.000001  -0.000007
    17  C   -0.000000  -0.000000  -0.000000   0.000124  -0.000015  -0.000293
    18  H   -0.000000  -0.000000  -0.000000  -0.000008  -0.000001  -0.000061
    19  H   -0.000000  -0.000000  -0.000000   0.000003  -0.000000  -0.000007
    20  H    0.000000   0.000000   0.000000  -0.000007  -0.000000   0.000013
    21  C   -0.000042  -0.000000  -0.000000  -0.000000   0.000001  -0.000000
    22  C    0.000012   0.000000   0.000000   0.000001   0.001993   0.000000
    23  C    0.000001   0.000000   0.000000  -0.000000   0.000000   0.000000
    24  C    0.000044   0.000000   0.000000   0.000000   0.000000   0.000000
    25  C    0.000000   0.000000   0.000000   0.000000   0.000000   0.000000
    26  C    0.000004   0.000000   0.000000   0.000000  -0.000000  -0.000000
    27  H   -0.000090  -0.000000  -0.000000  -0.000000   0.000000   0.000000
    28  C   -0.000000  -0.000000  -0.000000  -0.000000  -0.000000   0.000000
    29  H   -0.000000  -0.000000  -0.000000   0.000000  -0.000000  -0.000000
    30  H   -0.000000  -0.000000  -0.000000  -0.000000  -0.000000   0.000000
    31  H    0.000000   0.000000   0.000000   0.000000  -0.000000  -0.000000
    32  N   -0.000206  -0.000000  -0.000001  -0.000000  -0.000040  -0.000000
    33  N    0.000001   0.000000   0.000000   0.000000  -0.000006   0.000000
    34  N   -0.000001  -0.000000  -0.000206  -0.000081  -0.030194   0.001287
    35  N    0.000000   0.000000   0.000001  -0.000538  -0.042271   0.005121
    36  C    0.000000   0.000000   0.000000  -0.000035   0.000492   0.000322
    37  H   -0.000000  -0.000000  -0.000000   0.000003   0.000420  -0.000102
    38  H   -0.000000  -0.000000  -0.000000   0.000003   0.000421  -0.000102
    39  H   -0.000000  -0.000000  -0.000000  -0.000000  -0.000480  -0.000042
    40  C    0.000000   0.000000   0.000000   0.000000  -0.000001  -0.000000
    41  H   -0.000000  -0.000000  -0.000000   0.000000   0.000000   0.000000
    42  H   -0.000000  -0.000000  -0.000000   0.000000   0.000000   0.000000
    43  H   -0.000000  -0.000000  -0.000000  -0.000000   0.000002   0.000000
    44  Co   0.000217   0.000019   0.000217   0.001056   0.059642   0.000261
              13         14         15         16         17         18
     1  C    0.000021   0.000001  -0.000000  -0.000001  -0.000000   0.000000
     2  C   -0.000000   0.000000   0.000000  -0.000000  -0.000000   0.000000
     3  C   -0.000000  -0.000000   0.000000  -0.000000   0.000000  -0.000000
     4  C    0.000008   0.000000  -0.000000   0.000001  -0.000000   0.000000
     5  C   -0.000204  -0.000001   0.000003   0.000036   0.000000   0.000000
     6  C   -0.000354  -0.000017   0.000010   0.000041   0.000001   0.000000
     7  H    0.000000   0.000000   0.000000  -0.000000  -0.000000  -0.000000
     8  H    0.000000   0.000000   0.000000  -0.000000  -0.000000  -0.000000
     9  H    0.000044   0.000000   0.000004  -0.000090  -0.000000  -0.000000
    10  C    0.003689   0.000737  -0.000682  -0.000142   0.000124  -0.000008
    11  C    0.000298   0.000496  -0.000026  -0.000001  -0.000015  -0.000001
    12  C    0.000605   0.000845   0.000159  -0.000007  -0.000293  -0.000061
    13  C    0.025120   0.001028  -0.009577   0.000180  -0.001380  -0.000006
    14  C    0.001028   0.048178  -0.002062  -0.000003  -0.007763   0.000062
[...]
    40 C(13)  Bbb    -0.0033    -0.437    -0.156    -0.146 -0.6507  0.7594  0.0000
              Bcc     0.0085     1.141     0.407     0.381  0.7594  0.6507  0.0001
 
              Baa    -0.0038    -2.008    -0.717    -0.670 -0.0410  0.3508  0.9356
    41 H(1)   Bbb    -0.0024    -1.277    -0.456    -0.426 -0.6765  0.6794 -0.2843
              Bcc     0.0062     3.285     1.172     1.096  0.7353  0.6445 -0.2095
 
              Baa    -0.0038    -2.007    -0.716    -0.670  0.0408 -0.3506  0.9356
    42 H(1)   Bbb    -0.0024    -1.277    -0.456    -0.426 -0.6765  0.6794  0.2842
              Bcc     0.0062     3.285     1.172     1.096  0.7353  0.6445  0.2095
 
              Baa    -0.0069    -3.680    -1.313    -1.228 -0.0001 -0.0001  1.0000
    43 H(1)   Bbb    -0.0056    -2.999    -1.070    -1.000  0.7811 -0.6245  0.0001
              Bcc     0.0125     6.679     2.383     2.228  0.6245  0.7811  0.0001
 
              Baa    -1.5635  -197.442   -70.452   -65.860  1.0000 -0.0000  0.0000
    44 Co(59) Bbb     0.3554    44.879    16.014    14.970  0.0000  1.0000  0.0000
              Bcc     1.2081   152.563    54.438    50.890 -0.0000 -0.0000  1.0000
 

 ---------------------------------------------------------------------------------

   1 Symmetry operations used in ECPInt.
 ECPInt:  NShTT=   11781 NPrTT=   71406 LenC2=    9558 LenP2D=   32140.
 LDataN:  DoStor=T MaxTD1= 7 Len=  274
 Calling FoFJK, ICntrl=      2127 FMM=F ISym2X=0 I1Cent= 0 IOpClX= 1 NMat=1 NMatS=1 NMatT=0.
 -------------------------------------------------------------------
 Center     Atomic                   Forces (Hartrees/Bohr)
 Number     Number              X              Y              Z
 -------------------------------------------------------------------
      1        6           0.000000968    0.025478061   -0.000011091
      2        6           0.002175677   -0.008075605    0.000003503
      3        6           0.005464609    0.000360256    0.000001113
      4        6          -0.000000378   -0.002767432   -0.000000546
      5        6          -0.005463270    0.000360527    0.000000453
      6        6          -0.002176820   -0.008077248    0.000005553
      7        1           0.000371618   -0.000858498   -0.000000428
      8        1          -0.000000044    0.001992030    0.000000034
      9        1          -0.000372152   -0.000858701   -0.000000509
     10        6           0.002561082    0.000296689    0.000000588
     11        6           0.005856671   -0.002684721    0.000002523
     12        6          -0.006100839    0.001485000    0.000000981
     13        6          -0.004347533   -0.002151158   -0.000000596
     14        6          -0.000108528   -0.000172351    0.000000323
     15        6           0.000450395   -0.000524117    0.000000485
     16        1           0.000444789    0.000206225    0.000000061
     17        6          -0.000373450    0.000593319   -0.000000202
     18        1           0.000397418   -0.000332244   -0.000000076
     19        1           0.000142711    0.000094436   -0.000000061
     20        1           0.000801581   -0.000079480   -0.000000090
     21        6          -0.002557821    0.000294954   -0.000002114
     22        6          -0.005857689   -0.002686076    0.000006205
     23        6           0.006093046    0.001483001    0.000001765
     24        6           0.004342227   -0.002148833    0.000000344
     25        6           0.000114907   -0.000171556    0.000000600
     26        6          -0.000445203   -0.000524046    0.000000259
     27        1          -0.000444684    0.000205646   -0.000000110
     28        6           0.000368008    0.000593443   -0.000000424
     29        1          -0.000397818   -0.000333014   -0.000000166
     30        1          -0.000143860    0.000095471   -0.000000028
     31        1          -0.000799225   -0.000079181   -0.000000011
     32        7          -0.004564000    0.007160129    0.000000182
     33        7          -0.000100792   -0.004030734   -0.000002535
     34        7           0.004564323    0.007163114   -0.000002802
     35        7           0.000105756   -0.004036606    0.000000893
     36        6          -0.000443009    0.002209605   -0.000001064
     37        1          -0.000064188    0.000306857    0.000149321
     38        1          -0.000064056    0.000307444   -0.000149518
     39        1          -0.000286456   -0.000270278    0.000000414
     40        6           0.000441650    0.002206973   -0.000000919
     41        1           0.000064028    0.000307054   -0.000149601
     42        1           0.000064438    0.000307254    0.000149754
     43        1           0.000286744   -0.000270053    0.000000565
     44       27          -0.000000830   -0.012375559   -0.000003030
 -------------------------------------------------------------------
 Cartesian Forces:  Max     0.025478061 RMS     0.003291117

 GradGradGradGradGradGradGradGradGradGradGradGradGradGradGradGradGradGrad
 Berny optimization.
 Search for a local minimum.
 Step number   1 out of a maximum of    2
 All quantities printed in internal units (Hartrees-Bohrs-Radians)
 Second derivative matrix not updated -- first step.
 ITU=  0
     Eigenvalues ---    0.00052   0.00061   0.00195   0.00237   0.00241
     Eigenvalues ---    0.00365   0.00435   0.00579   0.00588   0.00615
     Eigenvalues ---    0.00668   0.00842   0.00848   0.01298   0.01596
     Eigenvalues ---    0.01831   0.01947   0.02014   0.02542   0.02544
     Eigenvalues ---    0.03027   0.03238   0.04033   0.04134   0.04297
     Eigenvalues ---    0.04487   0.04701   0.05398   0.05511   0.05970
     Eigenvalues ---    0.06279   0.06933   0.06974   0.07043   0.07057
     Eigenvalues ---    0.07066   0.07294   0.07684   0.07750   0.09667
     Eigenvalues ---    0.09816   0.10486   0.10532   0.11466   0.11936
     Eigenvalues ---    0.12000   0.12279   0.12509   0.12762   0.13371
     Eigenvalues ---    0.13383   0.13483   0.13654   0.14871   0.15735
     Eigenvalues ---    0.15793   0.15860   0.19316   0.20266   0.20671
     Eigenvalues ---    0.21585   0.22578   0.23998   0.24767   0.28943
     Eigenvalues ---    0.29897   0.30334   0.30761   0.31455   0.31531
     Eigenvalues ---    0.33230   0.34548   0.36428   0.36968   0.37148
     Eigenvalues ---    0.39597   0.41248   0.43149   0.46008   0.46914
     Eigenvalues ---    0.48610   0.49145   0.49382   0.52664   0.53082
     Eigenvalues ---    0.53385   0.54970   0.55038   0.65181   0.68335
     Eigenvalues ---    0.71731   0.73808   0.75070   0.83919   0.85187
     Eigenvalues ---    0.90906   0.92197   0.93936   0.94249   0.95526
     Eigenvalues ---    0.95765   0.97682   1.04779   1.06208   1.14398
     Eigenvalues ---    1.16223   1.18019   1.18173   1.21392   1.27895
     Eigenvalues ---    1.33232   1.37912   1.38396   1.45767   1.47824
     Eigenvalues ---    1.49123   1.53037   1.54122   1.61364   1.64470
     Eigenvalues ---    1.66477   1.67466   1.72750   1.76223   1.79496
     Eigenvalues ---    1.80522
 Angle between quadratic step and forces=  45.60 degrees.
 Linear search not attempted -- first point.
 B after Tr=    -0.000000    0.000183   -0.000001
         Rot=    1.000000   -0.000000   -0.000000    0.000000 Ang=  -0.00 deg.
 Variable       Old X    -DE/DX   Delta X   Delta X   Delta X     New X
                                 (Linear)    (Quad)   (Total)
    X1        0.00000   0.00000   0.00000   0.00000   0.00000   0.00000
    Y1        1.24275   0.02548   0.00000   0.03274   0.03292   1.27567
    Z1        0.00020  -0.00001   0.00000  -0.00005  -0.00005   0.00016
    X2       -2.29624   0.00218   0.00000  -0.00027  -0.00027  -2.29652
    Y2        2.56699  -0.00808   0.00000   0.00351   0.00370   2.57069
    Z2        0.00007   0.00000   0.00000   0.00000   0.00000   0.00007
    X3       -2.33760   0.00546   0.00000   0.00985   0.00985  -2.32775
    Y3        5.19437   0.00036   0.00000   0.00172   0.00190   5.19627
    Z3       -0.00001   0.00000   0.00000   0.00002   0.00002   0.00001
    X4        0.00000  -0.00000   0.00000  -0.00000  -0.00000   0.00000
    Y4        6.45302  -0.00277   0.00000   0.00476   0.00494   6.45796
    Z4        0.00003  -0.00000   0.00000   0.00001   0.00001   0.00003
    X5        2.33760  -0.00546   0.00000  -0.00985  -0.00985   2.32775
    Y5        5.19437   0.00036   0.00000   0.00172   0.00190   5.19627
    Z5        0.00009   0.00000   0.00000   0.00000  -0.00000   0.00009
    X6        2.29625  -0.00218   0.00000   0.00027   0.00027   2.29652
    Y6        2.56699  -0.00808   0.00000   0.00351   0.00370   2.57069
    Z6        0.00015   0.00001   0.00000  -0.00001  -0.00001   0.00013
    X7       -4.07251   0.00037   0.00000   0.00859   0.00859  -4.06393
    Y7        6.28584  -0.00086   0.00000  -0.00439  -0.00420   6.28163
    Z7       -0.00009  -0.00000   0.00000   0.00003   0.00003  -0.00005
    X8        0.00000  -0.00000   0.00000  -0.00000  -0.00000  -0.00000
    Y8        8.50071   0.00199   0.00000   0.01036   0.01054   8.51125
    Z8       -0.00002   0.00000   0.00000   0.00001   0.00001  -0.00001
    X9        4.07252  -0.00037   0.00000  -0.00859  -0.00859   4.06393
    Y9        6.28584  -0.00086   0.00000  -0.00438  -0.00420   6.28164
    Z9        0.00010  -0.00000   0.00000  -0.00001  -0.00001   0.00009
   X10        6.90790   0.00256   0.00000   0.00140   0.00140   6.90930
   Y10        1.08813   0.00030   0.00000   0.00192   0.00210   1.09023
   Z10       -0.00004   0.00000   0.00000  -0.00002  -0.00002  -0.00006
   X11        3.56032   0.00586   0.00000   0.01066   0.01066   3.57099
   Y11       -1.68994  -0.00268   0.00000  -0.00040  -0.00022  -1.69015
   Z11        0.00016   0.00000   0.00000  -0.00001  -0.00001   0.00015
   X12        7.87323  -0.00610   0.00000  -0.01086  -0.01086   7.86237
   Y12       -1.39686   0.00148   0.00000  -0.00066  -0.00047  -1.39734
   Z12       -0.00019   0.00000   0.00000   0.00001   0.00001  -0.00018
   X13        8.55240  -0.00435   0.00000  -0.00590  -0.00590   8.54650
   Y13        3.14670  -0.00215   0.00000  -0.00241  -0.00223   3.14447
   Z13       -0.00009  -0.00000   0.00000  -0.00003  -0.00003  -0.00013
   X14       10.44809  -0.00011   0.00000  -0.00958  -0.00958  10.43852
   Y14       -1.89260  -0.00017   0.00000  -0.00286  -0.00268  -1.89528
   Z14       -0.00039   0.00000   0.00000   0.00003   0.00003  -0.00036
   X15       11.14174   0.00045   0.00000  -0.00498  -0.00498  11.13676
   Y15        2.64766  -0.00052   0.00000  -0.00410  -0.00392   2.64374
   Z15       -0.00032   0.00000   0.00000  -0.00000  -0.00001  -0.00033
   X16        7.85971   0.00044   0.00000  -0.00048  -0.00048   7.85923
   Y16        5.07241   0.00021   0.00000  -0.00033  -0.00015   5.07226
   Z16        0.00003   0.00000   0.00000  -0.00005  -0.00005  -0.00003
   X17       12.07660  -0.00037   0.00000  -0.00659  -0.00659  12.07001
   Y17        0.18032   0.00059   0.00000  -0.00399  -0.00381   0.17651
   Z17       -0.00046  -0.00000   0.00000   0.00002   0.00002  -0.00044
   X18       11.16255   0.00040   0.00000  -0.00779  -0.00779  11.15476
   Y18       -3.81446  -0.00033   0.00000  -0.00355  -0.00337  -3.81783
   Z18       -0.00047  -0.00000   0.00000   0.00005   0.00004  -0.00043
   X19       12.45494   0.00014   0.00000  -0.00330  -0.00330  12.45164
   Y19        4.22397   0.00009   0.00000  -0.00489  -0.00471   4.21926
   Z19       -0.00037  -0.00000   0.00000  -0.00001  -0.00001  -0.00038
   X20       14.10215   0.00080   0.00000  -0.00453  -0.00453  14.09761
   Y20       -0.13430  -0.00008   0.00000  -0.00550  -0.00532  -0.13962
   Z20       -0.00061  -0.00000   0.00000   0.00004   0.00003  -0.00058
   X21       -6.90790  -0.00256   0.00000  -0.00140  -0.00140  -6.90930
   Y21        1.08812   0.00029   0.00000   0.00191   0.00210   1.09022
   Z21       -0.00005  -0.00000   0.00000   0.00000   0.00000  -0.00005
   X22       -3.56031  -0.00586   0.00000  -0.01066  -0.01066  -3.57097
   Y22       -1.68994  -0.00269   0.00000  -0.00040  -0.00022  -1.69016
   Z22        0.00005   0.00001   0.00000   0.00002   0.00002   0.00006
   X23       -7.87321   0.00609   0.00000   0.01085   0.01085  -7.86236
   Y23       -1.39687   0.00148   0.00000  -0.00066  -0.00047  -1.39735
   Z23       -0.00012   0.00000   0.00000   0.00001   0.00001  -0.00011
   X24       -8.55240   0.00434   0.00000   0.00589   0.00589  -8.54650
   Y24        3.14669  -0.00215   0.00000  -0.00241  -0.00222   3.14446
   Z24       -0.00009   0.00000   0.00000  -0.00000  -0.00000  -0.00010
   X25      -10.44809   0.00011   0.00000   0.00958   0.00958 -10.43851
   Y25       -1.89262  -0.00017   0.00000  -0.00286  -0.00268  -1.89529
   Z25       -0.00020   0.00000   0.00000   0.00002   0.00002  -0.00017
   X26      -11.14174  -0.00045   0.00000   0.00498   0.00498 -11.13676
   Y26        2.64764  -0.00052   0.00000  -0.00410  -0.00391   2.64373
   Z26       -0.00018   0.00000   0.00000   0.00001   0.00001  -0.00018
   X27       -7.85971  -0.00044   0.00000   0.00048   0.00048  -7.85923
   Y27        5.07240   0.00021   0.00000  -0.00033  -0.00015   5.07225
   Z27       -0.00004  -0.00000   0.00000  -0.00001  -0.00001  -0.00005
   X28      -12.07659   0.00037   0.00000   0.00659   0.00659 -12.07000
   Y28        0.18030   0.00059   0.00000  -0.00399  -0.00381   0.17649
   Z28       -0.00023  -0.00000   0.00000   0.00001   0.00002  -0.00021
   X29      -11.16253  -0.00040   0.00000   0.00779   0.00779 -11.15474
   Y29       -3.81447  -0.00033   0.00000  -0.00355  -0.00337  -3.81785
   Z29       -0.00021  -0.00000   0.00000   0.00002   0.00003  -0.00018
   X30      -12.45494  -0.00014   0.00000   0.00330   0.00330 -12.45163
   Y30        4.22395   0.00010   0.00000  -0.00489  -0.00471   4.21924
   Z30       -0.00021  -0.00000   0.00000   0.00000   0.00000  -0.00020
   X31      -14.10214  -0.00080   0.00000   0.00453   0.00453 -14.09761
   Y31       -0.13432  -0.00008   0.00000  -0.00550  -0.00532  -0.13964
   Z31       -0.00028  -0.00000   0.00000   0.00002   0.00002  -0.00026
   X32       -4.30083  -0.00456   0.00000  -0.00697  -0.00697  -4.30780
   Y32        0.83314   0.00716   0.00000   0.01000   0.01018   0.84332
   Z32        0.00002   0.00000   0.00000   0.00001   0.00001   0.00003
   X33       -5.80282  -0.00010   0.00000   0.00074   0.00074  -5.80208
   Y33       -2.99857  -0.00403   0.00000  -0.00720  -0.00702  -3.00559
   Z33       -0.00006  -0.00000   0.00000  -0.00001  -0.00001  -0.00007
   X34        4.30084   0.00456   0.00000   0.00697   0.00697   4.30781
   Y34        0.83313   0.00716   0.00000   0.01001   0.01019   0.84332
   Z34        0.00018  -0.00000   0.00000  -0.00002  -0.00003   0.00015
   X35        5.80282   0.00011   0.00000  -0.00073  -0.00073   5.80209
   Y35       -2.99856  -0.00404   0.00000  -0.00721  -0.00702  -3.00559
   Z35       -0.00009   0.00000   0.00000   0.00000   0.00000  -0.00009
   X36        5.99871  -0.00044   0.00000  -0.00688  -0.00688   5.99183
   Y36       -5.71378   0.00221   0.00000  -0.00103  -0.00085  -5.71463
   Z36        0.00001  -0.00000   0.00000   0.00001   0.00001   0.00001
   X37        6.99958  -0.00006   0.00000  -0.00605  -0.00605   6.99353
   Y37       -6.38228   0.00031   0.00000   0.00184   0.00203  -6.38026
   Z37       -1.68639   0.00015   0.00000   0.00027   0.00027  -1.68612
   X38        6.99879  -0.00006   0.00000  -0.00601  -0.00601   6.99279
   Y38       -6.38229   0.00031   0.00000   0.00187   0.00205  -6.38023
   Z38        1.68688  -0.00015   0.00000  -0.00027  -0.00027   1.68661
   X39        4.09464  -0.00029   0.00000  -0.00743  -0.00743   4.08721
   Y39       -6.50460  -0.00027   0.00000  -0.00247  -0.00229  -6.50689
   Z39       -0.00046   0.00000   0.00000   0.00004   0.00004  -0.00042
   X40       -5.99869   0.00044   0.00000   0.00688   0.00688  -5.99181
   Y40       -5.71378   0.00221   0.00000  -0.00103  -0.00085  -5.71463
   Z40        0.00008  -0.00000   0.00000  -0.00003  -0.00003   0.00005
   X41       -6.99866   0.00006   0.00000   0.00599   0.00599  -6.99267
   Y41       -6.38227   0.00031   0.00000   0.00185   0.00203  -6.38024
   Z41        1.68703  -0.00015   0.00000  -0.00033  -0.00033   1.68670
   X42       -6.99968   0.00006   0.00000   0.00607   0.00607  -6.99361
   Y42       -6.38232   0.00031   0.00000   0.00187   0.00205  -6.38027
   Z42       -1.68624   0.00015   0.00000   0.00021   0.00021  -1.68603
   X43       -4.09462   0.00029   0.00000   0.00743   0.00743  -4.08719
   Y43       -6.50460  -0.00027   0.00000  -0.00247  -0.00228  -6.50688
   Z43       -0.00051   0.00000   0.00000   0.00001   0.00001  -0.00050
   X44        0.00001  -0.00000   0.00000  -0.00000  -0.00000   0.00001
   Y44       -2.18379  -0.01238   0.00000  -0.01007  -0.00989  -2.19368
   Z44        0.00023  -0.00000   0.00000  -0.00001  -0.00001   0.00022
         Item               Value     Threshold  Converged?
 Maximum Force            0.025478     0.000450     NO 
 RMS     Force            0.003291     0.000300     NO 
 Maximum Displacement     0.032920     0.001800     NO 
 RMS     Displacement     0.005345     0.001200     NO 
 Predicted change in Energy=-8.124650D-04
 GradGradGradGradGradGradGradGradGradGradGradGradGradGradGradGradGradGrad

 Unable to Open any file for archive entry.
 1\1\GINC-X11P1N5\Force\UPBE1PBE\GenECP\C22H17Co1N4(3)\MAYUMIAO\17-Jul-
 2024\0\\# pbe1pbe em=gd3bj genecp g09default scf=(xqc,maxcycle=64) for
 ce guess=read nosymm\\Title Card\\0,3\C,0.00000129,0.65763751,0.000108
 42\C,-1.21512016,1.35839322,0.00003576\C,-1.23700438,2.7487424,-0.0000
 0438\C,0.00000085,3.41479323,0.00001361\C,1.23700615,2.74874302,0.0000
 476\C,1.21512341,1.35839458,0.00007691\H,-2.15508062,3.32632151,-0.000
 04529\H,0.00000106,4.4983794,-0.00001084\H,2.15508304,3.32632267,0.000
 05087\C,3.65550369,0.57581409,-0.00002002\C,1.88404065,-0.89427764,0.0
 0008451\C,4.1663337,-0.73918906,-0.00010122\C,4.525737,1.6651617,-0.00
 005017\C,5.52889367,-1.00152171,-0.0002055\C,5.89595466,1.40108101,-0.
 00016886\H,4.1591793,2.68420412,0.00001369\C,6.39066118,0.09542101,-0.
 00024091\H,5.906965,-2.01852545,-0.00025036\H,6.59086935,2.23522771,-0
 .00019597\H,7.46253391,-0.07106892,-0.00032246\C,-3.6555018,0.57581095
 ,-0.00002847\C,-1.88403484,-0.89427734,0.00002493\C,-4.16632469,-0.739
 19396,-0.00006464\C,-4.5257332,1.66515486,-0.00004936\C,-5.52888962,-1
 .00152978,-0.00010482\C,-5.89595462,1.40107262,-0.00009658\H,-4.159179
 2,2.68419938,-0.00002103\C,-6.39065433,0.09541175,-0.0001206\H,-5.9069
 5797,-2.01853315,-0.00011035\H,-6.59086787,2.2352174,-0.00010894\H,-7.
 46253053,-0.07107992,-0.00015022\N,-2.27590093,0.44087648,0.00000911\N
 ,-3.07071816,-1.58677691,-0.00003245\N,2.27590388,0.44087538,0.0000931
 5\N,3.07072226,-1.5867705,-0.00004766\C,3.17438102,-3.02360086,0.00000
 373\H,3.70402064,-3.37735957,-0.89239717\H,3.70360133,-3.37735982,0.89
 265708\H,2.16678967,-3.44208419,-0.00024288\C,-3.174371,-3.02360326,0.
 00004196\H,-3.70353004,-3.37735229,0.89273583\H,-3.70407074,-3.3773773
 2,-0.89231852\H,-2.16677982,-3.44208629,-0.0002701\Co,0.0000038,-1.155
 61101,0.00012259\\Version=ES64L-G16RevC.01\HF=-1212.1367775\S2=2.13310
 9\S2-1=0.\S2A=2.003186\RMSD=7.116e-09\RMSF=3.291e-03\Dipole=0.0000356,
 -1.309913,-0.000223\Quadrupole=8.1203838,11.4162837,-19.5366676,-0.000
 0631,-0.0002989,0.0008607\PG=C01 [X(C22H17Co1N4)]\\@
 The archive entry for this job was punched.


 KNOWLEDGE IS CHIMERA - FOR BEYOND IT LIES OTHER KNOWLEDGE,
 AND THE INCOMPLETENESS OF WHAT IS KNOWN RENDERS THE KNOWING FALSE.
     -- THE THOMAS COVENANT CHRONICLES
 Job cpu time:       0 days  0 hours 40 minutes 30.9 seconds.
 Elapsed time:       0 days  0 hours  0 minutes 44.2 seconds.
 File lengths (MBytes):  RWF=    184 Int=      0 D2E=      0 Chk=     72 Scr=      1
 Normal termination of Gaussian 16 at Wed Jul 17 20:41:51 2024.
