 Entering Gaussian System, Link 0=g16
 Input=JOBS/6_B.gjf
 Output=JOBS/6_B.log
 Initial command:
 /data/app/gaussian/C01-avx2//g16/l1.exe "/tmp/Gau-2042527.inp" -scrdir="/tmp/"
 Entering Link 1 = /data/app/gaussian/C01-avx2//g16/l1.exe PID=   2042528.
  
 Copyright (c) 1988-2019, Gaussian, Inc.  All Rights Reserved.
  
 This is part of the Gaussian(R) 16 program.  It is based on
 the Gaussian(R) 09 system (copyright 2009, Gaussian, Inc.),
 the Gaussian(R) 03 system (copyright 2003, Gaussian, Inc.),
 the Gaussian(R) 98 system (copyright 1998, Gaussian, Inc.),
 the Gaussian(R) 94 system (copyright 1995, Gaussian, Inc.),
 the Gaussian 92(TM) system (copyright 1992, Gaussian, Inc.),
 the Gaussian 90(TM) system (copyright 1990, Gaussian, Inc.),
 the Gaussian 88(TM) system (copyright 1988, Gaussian, Inc.),
 the Gaussian 86(TM) system (copyright 1986, Carnegie Mellon
 University), and the Gaussian 82(TM) system (copyright 1983,
 Carnegie Mellon University). Gaussian is a federally registered
 trademark of Gaussian, Inc.
  
 This software contains proprietary and confidential information,
 including trade secrets, belonging to Gaussian, Inc.
  
 This software is provided under written license and may be
 used, copied, transmitted, or stored only in accord with that
 written license.
  
 The following legend is applicable only to US Government
 contracts under FAR:
  
                    RESTRICTED RIGHTS LEGEND
  
 Use, reproduction and disclosure by the US Government is
 subject to restrictions as set forth in subparagraphs (a)
 and (c) of the Commercial Computer Software - Restricted
 Rights clause in FAR 52.227-19.
  
 Gaussian, Inc.
 340 Quinnipiac St., Bldg. 40, Wallingford CT 06492
  
  
 ---------------------------------------------------------------
 Warning -- This program may not be used in any manner that
 competes with the business of Gaussian, Inc. or will provide
 assistance to any competitor of Gaussian, Inc.  The licensee
 of this program is prohibited from giving any competitor of
 Gaussian, Inc. access to this program.  By using this program,
 the user acknowledges that Gaussian, Inc. is engaged in the
 business of creating and licensing software in the field of
 computational chemistry and represents and warrants to the
 licensee that it is not a competitor of Gaussian, Inc. and that
 it will not use this program in any manner prohibited above.
 ---------------------------------------------------------------
  

 Cite this work as:
 Gaussian 16, Revision C.01,
 M. J. Frisch, G. W. Trucks, H. B. Schlegel, G. E. Scuseria, 
 M. A. Robb, J. R. Cheeseman, G. Scalmani, V. Barone, 
 G. A. Petersson, H. Nakatsuji, X. Li, M. Caricato, A. V. Marenich, 
 J. Bloino, B. G. Janesko, R. Gomperts, B. Mennucci, H. P. Hratchian, 
 J. V. Ortiz, A. F. Izmaylov, J. L. Sonnenberg, D. Williams-Young, 
 F. Ding, F. Lipparini, F. Egidi, J. Goings, B. Peng, A. Petrone, 
 T. Henderson, D. Ranasinghe, V. G. Zakrzewski, J. Gao, N. Rega, 
 G. Zheng, W. Liang, M. Hada, M. Ehara, K. Toyota, R. Fukuda, 
 J. Hasegawa, M. Ishida, T. Nakajima, Y. Honda, O. Kitao, H. Nakai, 
 T. Vreven, K. Throssell, J. A. Montgomery, Jr., J. E. Peralta, 
 F. Ogliaro, M. J. Bearpark, J. J. Heyd, E. N. Brothers, K. N. Kudin, 
 V. N. Staroverov, T. A. Keith, R. Kobayashi, J. Normand, 
 K. Raghavachari, A. P. Rendell, J. C. Burant, S. S. Iyengar, 
 J. Tomasi, M. Cossi, J. M. Millam, M. Klene, C. Adamo, R. Cammi, 
 J. W. Ochterski, R. L. Martin, K. Morokuma, O. Farkas, 
 J. B. Foresman, and D. J. Fox, Gaussian, Inc., Wallingford CT, 2019.
 
 ******************************************
 Gaussian 16:  ES64L-G16RevC.01  3-Jul-2019
                17-Jul-2024 
 ******************************************
 %chk=b.chk
 %nprocshared=56
 Will use up to   56 processors via shared memory.
 %mem=96gb
 ----------------------------------------------------------------------
 # pbe1pbe em=gd3bj genecp g09default scf=(xqc,maxcycle=64) force guess
 =read nosymm
 ----------------------------------------------------------------------
 1/10=7,30=1,38=1,158=3,167=1/1,3;
 2/12=2,15=1,17=6,18=5,40=1/2;
 3/5=7,11=2,16=1,17=8,25=1,27=10,30=1,71=1,74=-13,75=-4,116=-2,124=41,158=3/1,2,3;
 4/5=1,60=-1/1;
 5/5=2,7=64,8=3,13=1,38=6,87=10/2,8;
 6/7=2,8=2,9=2,10=2,28=1,87=10/1;
 7/29=1,30=1,87=10/1,2,3,16;
 1/10=7,30=1,158=3,167=1/3;
 99//99;
 Using 2006 physical constants.
 ----------
 Title Card
 ----------
 Symbolic Z-matrix:
 Charge =  0 Multiplicity = 3
 6                     0.        0.71521   0.00013 
 6                    -1.25323   1.35478   0.00003 
 6                    -1.24743   2.74394  -0.00001 
 6                    0.         3.39936   0.00001 
 6                     1.24743   2.74394   0.00004 
 6                     1.25323   1.35478   0.00008 
 1                    -2.15926   3.32715  -0.00004 
 1                     0.        4.48577  -0.00001 
 1                     2.15926   3.32715   0.00005 
 6                     3.66707   0.58135  -0.00002 
 6                     1.88762  -0.89877   0.00008 
 6                     4.16603  -0.73947  -0.00009 
 6                     4.5277    1.66475  -0.00005 
 6                     5.52788  -1.00222  -0.0002 
 6                     5.90506   1.40006  -0.00017 
 1                     4.16036   2.68397   0.00001 
 6                     6.39323   0.10045  -0.00024 
 1                     5.90675  -2.01898  -0.00025 
 1                     6.5955    2.2373   -0.0002 
 1                     7.46376  -0.07071  -0.00032 
 6                    -3.66706   0.58135  -0.00003 
 6                    -1.88762  -0.89877   0.00004 
 6                    -4.16602  -0.73947  -0.00006 
 6                    -4.5277    1.66475  -0.00005 
 6                    -5.52787  -1.00222  -0.0001 
 6                    -5.90506   1.40005  -0.0001 
 1                    -4.16036   2.68397  -0.00002 
 6                    -6.39322   0.10044  -0.00012 
 1                    -5.90675  -2.01899  -0.00011 
 1                    -6.5955    2.23729  -0.00011 
 1                    -7.46376  -0.07072  -0.00015 
 7                    -2.28317   0.46119   0.00001 
 7                    -3.08283  -1.59414  -0.00003 
 7                     2.28317   0.46118   0.00009 
 7                     3.08283  -1.59413  -0.00004 
 6                     3.17925  -3.02231   0. 
 1                     3.70456  -3.38258  -0.89346 
 1                     3.70414  -3.38259   0.89373 
 1                     2.1711   -3.44416  -0.00025 
 6                    -3.17924  -3.02232   0.00004 
 1                    -3.70407  -3.38258   0.89381 
 1                    -3.70461  -3.3826   -0.89339 
 1                    -2.17109  -3.44417  -0.00028 
 27                    0.       -1.18423   0.0001 
 

 GradGradGradGradGradGradGradGradGradGradGradGradGradGradGradGradGradGrad
 Berny optimization.
 Initialization pass.
 Trust Radius=3.00D-01 FncErr=1.00D-07 GrdErr=1.00D-07 EigMax=2.50D+02 EigMin=1.00D-04
 Number of steps in this run=      2 maximum allowed number of steps=      2.
 GradGradGradGradGradGradGradGradGradGradGradGradGradGradGradGradGradGrad

                          Input orientation:                          
 ---------------------------------------------------------------------
 Center     Atomic      Atomic             Coordinates (Angstroms)
 Number     Number       Type             X           Y           Z
 ---------------------------------------------------------------------
      1          6           0        0.000002    0.715209    0.000125
      2          6           0       -1.253225    1.354775    0.000035
      3          6           0       -1.247427    2.743944   -0.000008
      4          6           0       -0.000000    3.399360    0.000014
      5          6           0        1.247430    2.743944    0.000044
      6          6           0        1.253226    1.354777    0.000075
      7          1           0       -2.159255    3.327149   -0.000045
      8          1           0        0.000001    4.485770   -0.000011
      9          1           0        2.159257    3.327150    0.000050
     10          6           0        3.667067    0.581353   -0.000021
     11          6           0        1.887624   -0.898767    0.000081
     12          6           0        4.166031   -0.739467   -0.000092
     13          6           0        4.527699    1.664753   -0.000053
     14          6           0        5.527878   -1.002215   -0.000201
     15          6           0        5.905060    1.400063   -0.000170
     16          1           0        4.160355    2.683974    0.000013
     17          6           0        6.393228    0.100452   -0.000242
     18          1           0        5.906753   -2.018980   -0.000249
     19          1           0        6.595501    2.237301   -0.000195
     20          1           0        7.463763   -0.070709   -0.000324
     21          6           0       -3.667065    0.581348   -0.000032
     22          6           0       -1.887618   -0.898769    0.000039
     23          6           0       -4.166024   -0.739474   -0.000062
     24          6           0       -4.527696    1.664748   -0.000052
     25          6           0       -5.527873   -1.002223   -0.000102
     26          6           0       -5.905059    1.400054   -0.000097
     27          1           0       -4.160355    2.683969   -0.000022
     28          6           0       -6.393223    0.100444   -0.000122
     29          1           0       -5.906746   -2.018988   -0.000109
     30          1           0       -6.595500    2.237292   -0.000108
     31          1           0       -7.463759   -0.070720   -0.000151
     32          7           0       -2.283168    0.461187    0.000011
     33          7           0       -3.082828   -1.594136   -0.000032
     34          7           0        2.283173    0.461184    0.000087
     35          7           0        3.082834   -1.594133   -0.000040
     36          6           0        3.179251   -3.022312    0.000005
     37          1           0        3.704564   -3.382583   -0.893465
     38          1           0        3.704140   -3.382590    0.893728
     39          1           0        2.171096   -3.444165   -0.000249
     40          6           0       -3.179241   -3.022316    0.000043
     41          1           0       -3.704069   -3.382580    0.893808
     42          1           0       -3.704614   -3.382602   -0.893385
     43          1           0       -2.171086   -3.444167   -0.000276
     44         27           0        0.000002   -1.184228    0.000098
 ---------------------------------------------------------------------
                    Distance matrix (angstroms):
                    1          2          3          4          5
     1  C    0.000000
     2  C    1.406990   0.000000
     3  C    2.381563   1.389181   0.000000
     4  C    2.684150   2.398103   1.409128   0.000000
     5  C    2.381563   2.860606   2.494857   1.409131   0.000000
     6  C    1.406989   2.506451   2.860603   2.398102   1.389179
     7  H    3.388896   2.170517   1.082385   2.160462   3.456245
     8  H    3.770561   3.372492   2.142436   1.086410   2.142437
     9  H    3.388896   3.941484   3.456244   2.160464   1.082385
    10  C    3.669508   4.980709   5.369269   4.624775   3.245219
    11  C    2.483554   3.865668   4.806027   4.694360   3.698539
    12  C    4.412696   5.809836   6.437366   5.872453   4.544490
    13  C    4.626195   5.789229   5.875094   4.848600   3.453233
    14  C    5.788520   7.179051   7.741994   7.066208   5.688229
    15  C    5.944639   7.158428   7.277643   6.234334   4.847632
    16  H    4.602671   5.574372   5.408114   4.221413   2.913542
    17  C    6.422715   7.748649   8.085026   7.194175   5.785091
    18  H    6.508879   7.915018   8.594634   8.015494   6.662938
    19  H    6.768853   7.898186   7.859275   6.697090   5.372015
    20  H    7.505025   8.832774   9.154622   8.230987   6.823860
    21  C    3.669509   2.534721   3.245223   4.624776   5.369272
    22  C    2.483553   2.341136   3.698541   4.694359   4.806026
    23  C    4.412694   3.587516   4.544492   5.872452   6.437366
    24  C    4.626194   3.289110   3.453235   4.848599   5.875096
    25  C    5.788520   4.881399   5.688232   7.066208   7.741995
    26  C    5.944641   4.652054   4.847636   6.234336   7.277646
    27  H    4.602671   3.196586   2.913546   4.221414   5.408118
    28  C    6.422714   5.290834   5.785094   7.194174   8.085028
    29  H    6.508879   5.747829   6.662941   8.015493   8.594635
    30  H    6.768853   5.414677   5.372018   6.697090   7.859277
    31  H    7.505025   6.372030   6.823864   8.230987   9.154624
    32  N    2.297258   1.363556   2.506740   3.720983   4.204296
    33  N    3.851872   3.470378   4.710376   5.868460   6.129443
    34  N    2.297259   3.647550   4.204299   3.720988   2.506742
    35  N    3.851872   5.243803   6.129443   5.868461   4.710374
    36  C    4.906800   6.229425   7.269469   7.165577   6.081253
    37  H    5.595908   6.915242   7.928103   7.779257   6.661096
    38  H    5.595634   6.914968   7.927875   7.779088   6.660969
    39  H    4.691913   5.895405   7.069582   7.179658   6.256664
    40  C    4.906799   4.782098   6.081255   7.165576   7.269468
    41  H    5.595595   5.408142   6.660953   7.779055   7.927827
    42  H    5.595945   5.408350   6.661116   7.779289   7.928147
    43  H    4.691911   4.885930   6.256666   7.179656   7.069580
    44  Co   1.899437   2.831451   4.121482   4.583587   4.121482
                    6          7          8          9         10
     6  C    0.000000
     7  H    3.941482   0.000000
     8  H    3.372490   2.450467   0.000000
     9  H    2.170517   4.318512   2.450467   0.000000
    10  C    2.534722   6.440918   5.356477   3.132553   0.000000
    11  C    2.341137   5.851119   5.705818   4.234638   2.314557
    12  C    3.587519   7.519748   6.682732   4.534812   1.411925
    13  C    3.289112   6.890495   5.334621   2.893627   1.383634
    14  C    4.881400   8.822438   7.789442   5.485527   2.443421
    15  C    4.652054   8.291371   6.662680   4.212446   2.383044
    16  H    3.196586   6.352255   4.533764   2.101920   2.159710
    17  C    5.290836   9.140926   7.752700   5.323353   2.768251
    18  H    5.747830   9.676858   8.786438   6.528769   3.431898
    19  H    5.414679   8.822331   6.968230   4.568154   3.364207
    20  H    6.372031  10.205289   8.744670   6.299463   3.852283
    21  C    4.980708   3.132556   5.356480   6.440920   7.334132
    22  C    3.865666   4.234639   5.705818   5.851118   5.748503
    23  C    5.809833   4.534814   6.682734   7.519747   7.943670
    24  C    5.789227   2.893629   5.334623   6.890495   8.266069
    25  C    7.179049   5.485530   7.789445   8.822439   9.330307
    26  C    7.158428   4.212450   6.662685   8.291374   9.607074
    27  H    5.574371   2.101923   4.533768   6.352258   8.104908
    28  C    7.748648   5.323355   7.752703   9.140927  10.071778
    29  H    7.915017   6.528772   8.786440   9.676858   9.920669
    30  H    7.898185   4.568156   6.968234   8.822333  10.395307
    31  H    8.832772   6.299466   8.744673  10.205290  11.149910
    32  N    3.647546   2.868640   4.627109   5.286671   5.951449
    33  N    5.243802   5.007198   6.816824   7.190167   7.091815
    34  N    1.363561   5.286674   4.627112   2.868643   1.389102
    35  N    3.470380   7.190168   6.816823   5.007197   2.252569
    36  C    4.782100   8.295498   8.153461   6.430867   3.636532
    37  H    5.408332   8.955617   8.742598   6.943116   4.063550
    38  H    5.408164   8.955380   8.742454   6.943049   4.063620
    39  H    4.885932   8.037576   8.221771   6.771325   4.294499
    40  C    6.229423   6.430868   8.153461   8.295497   7.736819
    41  H    6.914918   6.943045   8.742424   8.955326   8.416967
    42  H    6.915288   6.943122   8.742629   8.955667   8.417406
    43  H    5.895403   6.771325   8.221771   8.037574   7.091463
    44  Co   2.831452   5.001491   5.669998   5.001491   4.069969
                   11         12         13         14         15
    11  C    0.000000
    12  C    2.283969   0.000000
    13  C    3.679896   2.431271   0.000000
    14  C    3.641724   1.386962   2.848347   0.000000
    15  C    4.628651   2.757138   1.402563   2.431708   0.000000
    16  H    4.242799   3.423446   1.083399   3.931680   2.166200
    17  C    4.615073   2.380308   2.434591   1.401679   1.388271
    18  H    4.172322   2.160385   3.933406   1.085061   3.419044
    19  H    5.656768   3.842326   2.145603   3.410906   1.085208
    20  H    5.637287   3.364858   3.410616   2.148337   2.143065
    21  C    5.748505   7.943673   8.266070   9.330308   9.607074
    22  C    3.775242   6.055745   6.908541   7.416218   8.124682
    23  C    6.055743   8.332055   9.020040   9.697462  10.295841
    24  C    6.908542   9.020042   9.055395  10.403234  10.436113
    25  C    7.416218   9.697464  10.403234  11.055751  11.682591
    26  C    8.124684  10.295844  10.436115  11.682592  11.810119
    27  H    7.029513   9.002701   8.747633  10.365800  10.146970
    28  C    8.340914  10.592606  11.032389  11.971989  12.366761
    29  H    7.874458  10.153719  11.065604  11.479741  12.296693
    30  H    9.044239  11.165646  11.137924  12.548733  12.528565
    31  H    9.387972  11.649002  12.116391  13.024988  13.449480
    32  N    4.386911   6.560011   6.916393   7.946949   8.241879
    33  N    5.018857   7.299070   8.278918   8.631027   9.473508
    34  N    1.416308   2.233096   2.546856   3.559445   3.741598
    35  N    1.382772   1.379772   3.564825   2.515673   4.114629
    36  C    2.485506   2.486989   4.877181   3.097877   5.194943
    37  H    3.204534   2.827920   5.191468   3.128666   5.339838
    38  H    3.204327   2.828136   5.191605   3.129107   5.340119
    39  H    2.561133   3.360826   5.626244   4.151037   6.116292
    40  C    5.493868   7.691841   9.020285   8.938386  10.103562
    41  H    6.183454   8.350065   9.697245   9.575711  10.770711
    42  H    6.183918   8.350520   9.697671   9.576165  10.771144
    43  H    4.790844   6.890171   8.424653   8.076954   9.417574
    44  Co   1.909085   4.189704   5.349461   5.530872   6.445795
                   16         17         18         19         20
    16  H    0.000000
    17  C    3.414719   0.000000
    18  H    5.016741   2.174546   0.000000
    19  H    2.475773   2.146401   4.311648   0.000000
    20  H    4.301254   1.084132   2.494001   2.465926   0.000000
    21  C    8.104908  10.071779   9.920670  10.395308  11.149911
    22  C    7.029511   8.340914   7.874458   9.044238   9.387972
    23  C    9.002698  10.592604  10.153717  11.165643  11.648999
    24  C    8.747632  11.032389  11.065604  11.137923  12.116390
    25  C   10.365800  11.971989  11.479741  12.548733  13.024988
    26  C   10.146970  12.366762  12.296694  12.528566  13.449481
    27  H    8.320710  10.865204  11.111453  10.765126  11.946061
    28  C   10.865203  12.786451  12.481241  13.163324  13.858043
    29  H   11.111452  12.481241  11.813499  13.206898  13.511709
    30  H   10.765126  13.163325  13.206898  13.191000  14.247447
    31  H   11.946061  13.858043  13.511710  14.247447  14.927522
    32  N    6.816141   8.683892   8.557221   9.054576   9.761434
    33  N    8.412249   9.626383   8.999614  10.409128  10.656050
    34  N    2.909400   4.125854   4.391076   4.663771   5.207823
    35  N    4.411718   3.718915   2.855699   5.197953   4.638250
    36  C    5.790014   4.481217   2.906191   6.271706   5.202788
    37  H    6.148916   4.489799   2.739870   6.382676   5.088987
    38  H    6.148988   4.490207   2.740461   6.382964   5.089464
    39  H    6.442921   5.512776   3.998285   7.201000   6.276346
    40  C    9.296850  10.068954   9.141224  11.099961  11.044705
    41  H    9.972518  10.718500   9.748161  11.767049  11.682826
    42  H    9.972926  10.718945   9.748617  11.767475  11.683271
    43  H    8.811428   9.268861   8.202600  10.446632  10.208356
    44  Co   5.680804   6.521023   5.965444   7.430173   7.546367
                   21         22         23         24         25
    21  C    0.000000
    22  C    2.314558   0.000000
    23  C    1.411924   2.283967   0.000000
    24  C    1.383634   3.679896   2.431273   0.000000
    25  C    2.443420   3.641724   1.386964   2.848348   0.000000
    26  C    2.383044   4.628652   2.757140   1.402566   2.431708
    27  H    2.159710   4.242799   3.423447   1.083397   3.931680
    28  C    2.768250   4.615073   2.380311   2.434592   1.401679
    29  H    3.431898   4.172323   2.160387   3.933407   1.085061
    30  H    3.364206   5.656768   3.842328   2.145604   3.410906
    31  H    3.852282   5.637287   3.364861   3.410618   2.148337
    32  N    1.389103   1.416312   2.233098   2.546854   3.559448
    33  N    2.252569   1.382773   1.379768   3.564824   2.515672
    34  N    5.951451   4.386909   6.560009   6.916394   7.946949
    35  N    7.091816   5.018857   7.299067   8.278917   8.631027
    36  C    7.736821   5.493869   7.691840   9.020286   8.938387
    37  H    8.417356   6.183864   8.350469   9.697621   9.576121
    38  H    8.417023   6.183511   8.350114   9.697298   9.575758
    39  H    7.091465   4.790846   6.890170   8.424655   8.076955
    40  C    3.636532   2.485506   2.486987   4.877181   3.097878
    41  H    4.063625   3.204315   2.828147   5.191615   3.129127
    42  H    4.063544   3.204545   2.827906   5.191460   3.128647
    43  H    4.294499   2.561133   3.360824   5.626244   4.151037
    44  Co   4.069967   1.909082   4.189698   5.349459   5.530870
                   26         27         28         29         30
    26  C    0.000000
    27  H    2.166201   0.000000
    28  C    1.388269   3.414718   0.000000
    29  H    3.419043   5.016740   2.174546   0.000000
    30  H    1.085207   2.475772   2.146400   4.311647   0.000000
    31  H    2.143064   4.301254   1.084133   2.494000   2.465926
    32  N    3.741599   2.909397   4.125856   4.391079   4.663770
    33  N    4.114628   4.411717   3.718913   2.855698   5.197952
    34  N    8.241882   6.816145   8.683892   8.557221   9.054578
    35  N    9.473509   8.412249   9.626383   8.999613  10.409128
    36  C   10.103564   9.296851  10.068955   9.141224  11.099962
    37  H   10.771099   9.972875  10.718901   9.748576  11.767429
    38  H   10.770762   9.972573  10.718546   9.748204  11.767098
    39  H    9.417576   8.811430   9.268863   8.202601  10.446633
    40  C    5.194943   5.790014   4.481217   2.906191   6.271705
    41  H    5.340132   6.148995   4.490224   2.740484   6.382978
    42  H    5.339824   6.148909   4.489782   2.739849   6.382662
    43  H    6.116292   6.442921   5.512776   3.998285   7.201000
    44  Co   6.445793   5.680802   6.521020   5.965441   7.430170
                   31         32         33         34         35
    31  H    0.000000
    32  N    5.207825   0.000000
    33  N    4.638249   2.205404   0.000000
    34  N    9.761434   4.566342   5.746156   0.000000
    35  N   10.656050   5.746157   6.165661   2.205400   0.000000
    36  C   11.044706   6.478640   6.422874   3.596901   1.431429
    37  H   11.683230   7.171178   7.075694   4.194441   2.093635
    38  H   11.682871   7.170858   7.075331   4.194322   2.093662
    39  H   10.208357   5.923870   5.570128   3.906957   2.062494
    40  C    5.202788   3.596906   1.431430   6.478637   6.422872
    41  H    5.089484   4.194326   2.093662   7.170797   7.075277
    42  H    5.088968   4.194446   2.093635   7.171233   7.075742
    43  H    6.276346   3.906961   2.062495   5.923866   5.570125
    44  Co   7.546364   2.814295   3.109962   2.814295   3.109964
                   36         37         38         39         40
    36  C    0.000000
    37  H    1.097286   0.000000
    38  H    1.097293   1.787193   0.000000
    39  H    1.092856   1.775711   1.775729   0.000000
    40  C    6.358492   6.950893   6.950497   5.366942   0.000000
    41  H    6.950450   7.621166   7.408209   5.943122   1.097292
    42  H    6.950938   7.409177   7.621247   5.943522   1.097286
    43  H    5.366942   5.943470   5.943174   4.342182   1.092856
    44  Co   3.672353   4.399432   4.399092   3.133842   3.672350
                   41         42         43         44
    41  H    0.000000
    42  H    1.787193   0.000000
    43  H    1.775730   1.775709   0.000000
    44  Co   4.399046   4.399470   3.133839   0.000000
 Symmetry turned off by external request.
 Stoichiometry    C22H17CoN4(3)
 Framework group  C1[X(C22H17CoN4)]
 Deg. of freedom   126
 Full point group                 C1      NOp   1
 Rotational constants (GHZ):           0.4697965           0.1014735           0.0835378
 General basis read from cards:  (5D, 7F)
 ======================================================================================================
                                       Pseudopotential Parameters
 ======================================================================================================
  Center     Atomic      Valence      Angular      Power
  Number     Number     Electrons     Momentum     of R      Exponent        Coefficient   SO-Coeffient
 ======================================================================================================
    1          6
                                   No pseudopotential on this center.
    2          6
                                   No pseudopotential on this center.
    3          6
                                   No pseudopotential on this center.
    4          6
                                   No pseudopotential on this center.
    5          6
                                   No pseudopotential on this center.
    6          6
                                   No pseudopotential on this center.
    7          1
                                   No pseudopotential on this center.
    8          1
                                   No pseudopotential on this center.
    9          1
                                   No pseudopotential on this center.
   10          6
                                   No pseudopotential on this center.
   11          6
                                   No pseudopotential on this center.
   12          6
                                   No pseudopotential on this center.
   13          6
                                   No pseudopotential on this center.
   14          6
                                   No pseudopotential on this center.
   15          6
                                   No pseudopotential on this center.
   16          1
                                   No pseudopotential on this center.
   17          6
                                   No pseudopotential on this center.
   18          1
                                   No pseudopotential on this center.
   19          1
                                   No pseudopotential on this center.
   20          1
                                   No pseudopotential on this center.
   21          6
                                   No pseudopotential on this center.
   22          6
                                   No pseudopotential on this center.
   23          6
                                   No pseudopotential on this center.
   24          6
                                   No pseudopotential on this center.
   25          6
                                   No pseudopotential on this center.
   26          6
                                   No pseudopotential on this center.
   27          1
                                   No pseudopotential on this center.
   28          6
                                   No pseudopotential on this center.
   29          1
                                   No pseudopotential on this center.
   30          1
                                   No pseudopotential on this center.
   31          1
                                   No pseudopotential on this center.
   32          7
                                   No pseudopotential on this center.
   33          7
                                   No pseudopotential on this center.
   34          7
                                   No pseudopotential on this center.
   35          7
                                   No pseudopotential on this center.
   36          6
                                   No pseudopotential on this center.
   37          1
                                   No pseudopotential on this center.
   38          1
                                   No pseudopotential on this center.
   39          1
                                   No pseudopotential on this center.
   40          6
                                   No pseudopotential on this center.
   41          1
                                   No pseudopotential on this center.
   42          1
                                   No pseudopotential on this center.
   43          1
                                   No pseudopotential on this center.
   44         27           17
                                      F and up 
                                                     2        1.0000000        0.00000000    0.00000000
                                      S - F
                                                     2       23.6600000      283.96056600    0.00000000
                                                     2       10.6100000       47.15684600    0.00000000
                                      P - F
                                                     2       25.0400000      182.21223600    0.00000000
                                                     2       10.4400000       35.23335200    0.00000000
                                      D - F
                                                     2       29.5400000      -26.47533300    0.00000000
                                                     2       10.1800000       -1.82578700    0.00000000
 ======================================================================================================
   441 basis functions,   871 primitive gaussians,   473 cartesian basis functions
    98 alpha electrons       96 beta electrons
       nuclear repulsion energy      2498.1591055657 Hartrees.
 NAtoms=   44 NActive=   44 NUniq=   44 SFac= 1.00D+00 NAtFMM=   60 NAOKFM=F Big=F
 Integral buffers will be    131072 words long.
 Raffenetti 2 integral format.
 Two-electron integral symmetry is turned off.
 Nuclear repulsion after empirical dispersion term =     2498.0998171332 Hartrees.
 One-electron integrals computed using PRISM.
   1 Symmetry operations used in ECPInt.
 ECPInt:  NShTT=   11781 NPrTT=   71406 LenC2=    9542 LenP2D=   32123.
 LDataN:  DoStor=T MaxTD1= 6 Len=  172
 NBasis=   441 RedAO= T EigKep=  3.41D-04  NBF=   441
 NBsUse=   441 1.00D-06 EigRej= -1.00D+00 NBFU=   441
 Initial guess from the checkpoint file:  "b.chk"
 B after Tr=    -0.000000   -0.003820   -0.000005
         Rot=    1.000000   -0.000000    0.000000    0.000000 Ang=  -0.00 deg.
 Initial guess <Sx>= 0.0000 <Sy>= 0.0000 <Sz>= 1.0000 <S**2>= 2.1354 S= 1.0445
 Requested convergence on RMS density matrix=1.00D-08 within  64 cycles.
 Requested convergence on MAX density matrix=1.00D-06.
 Requested convergence on             energy=1.00D-06.
 No special actions if energy rises.
 EnCoef did     8 forward-backward iterations
 Restarting incremental Fock formation.
 SCF Done:  E(UPBE1PBE) =  -1212.13259826     A.U. after   35 cycles
            NFock= 35  Conv=0.16D-08     -V/T= 2.0552
 <Sx>= 0.0000 <Sy>= 0.0000 <Sz>= 1.0000 <S**2>= 2.1714 S= 1.0561
 <L.S>=  0.00000000000    
 Annihilation of the first spin contaminant:
 S**2 before annihilation     2.1714,   after     2.0040
 QCSCF skips out because SCF is already converged.

 **********************************************************************

            Population analysis using the SCF Density.

 **********************************************************************

 Alpha  occ. eigenvalues --  -14.45149 -14.45149 -14.44706 -14.44705 -10.27704
 Alpha  occ. eigenvalues --  -10.27703 -10.27282 -10.27282 -10.27280 -10.27279
 Alpha  occ. eigenvalues --  -10.27052 -10.27052 -10.26148 -10.26148 -10.23657
 Alpha  occ. eigenvalues --  -10.23657 -10.23506 -10.23506 -10.23013 -10.23013
 Alpha  occ. eigenvalues --  -10.22917 -10.22917 -10.22473 -10.22166 -10.22163
 Alpha  occ. eigenvalues --  -10.20213  -3.93682  -2.46267  -2.43705  -2.42912
 Alpha  occ. eigenvalues --   -1.05882  -1.05786  -0.96947  -0.96519  -0.88038
 Alpha  occ. eigenvalues --   -0.87679  -0.85402  -0.80302  -0.78801  -0.77667
 Alpha  occ. eigenvalues --   -0.77603  -0.75658  -0.74999  -0.73025  -0.72341
 Alpha  occ. eigenvalues --   -0.66723  -0.65321  -0.64387  -0.63934  -0.62820
 Alpha  occ. eigenvalues --   -0.61326  -0.58789  -0.57779  -0.56429  -0.53894
 Alpha  occ. eigenvalues --   -0.53013  -0.52026  -0.49734  -0.49646  -0.49114
 Alpha  occ. eigenvalues --   -0.48267  -0.47805  -0.47235  -0.46832  -0.45876
 Alpha  occ. eigenvalues --   -0.45739  -0.45264  -0.44869  -0.44807  -0.44151
 Alpha  occ. eigenvalues --   -0.42458  -0.41993  -0.41346  -0.38873  -0.38603
 Alpha  occ. eigenvalues --   -0.38603  -0.38224  -0.37253  -0.37246  -0.36898
 Alpha  occ. eigenvalues --   -0.36350  -0.34878  -0.34588  -0.33893  -0.32032
 Alpha  occ. eigenvalues --   -0.31677  -0.30388  -0.29097  -0.27066  -0.27035
 Alpha  occ. eigenvalues --   -0.26626  -0.25953  -0.24620  -0.23885  -0.22890
 Alpha  occ. eigenvalues --   -0.20724  -0.20380  -0.10202
 Alpha virt. eigenvalues --   -0.05934  -0.02476  -0.00081   0.00206   0.00296
 Alpha virt. eigenvalues --    0.02311   0.02915   0.03803   0.04350   0.05601
 Alpha virt. eigenvalues --    0.06319   0.08018   0.08055   0.09824   0.10256
 Alpha virt. eigenvalues --    0.12578   0.12974   0.13848   0.13902   0.15197
 Alpha virt. eigenvalues --    0.15304   0.15407   0.15971   0.16270   0.16550
 Alpha virt. eigenvalues --    0.16964   0.17741   0.17965   0.18144   0.18338
 Alpha virt. eigenvalues --    0.19402   0.19911   0.19935   0.20165   0.21023
 Alpha virt. eigenvalues --    0.21933   0.22804   0.23150   0.24180   0.25887
 Alpha virt. eigenvalues --    0.25995   0.26153   0.26302   0.27609   0.27961
 Alpha virt. eigenvalues --    0.27992   0.28852   0.30373   0.31041   0.31562
 Alpha virt. eigenvalues --    0.32909   0.33367   0.34150   0.34754   0.36479
 Alpha virt. eigenvalues --    0.37540   0.37859   0.39436   0.39660   0.41429
 Alpha virt. eigenvalues --    0.42029   0.44505   0.45078   0.46523   0.46878
 Alpha virt. eigenvalues --    0.47681   0.50331   0.50862   0.51845   0.52333
 Alpha virt. eigenvalues --    0.53888   0.54096   0.56272   0.56361   0.56495
 Alpha virt. eigenvalues --    0.56565   0.57294   0.57958   0.58561   0.58782
 Alpha virt. eigenvalues --    0.58817   0.59759   0.60511   0.61470   0.61559
 Alpha virt. eigenvalues --    0.61626   0.63012   0.63071   0.63372   0.63538
 Alpha virt. eigenvalues --    0.63648   0.63716   0.63913   0.64136   0.64746
 Alpha virt. eigenvalues --    0.65158   0.66210   0.66229   0.66965   0.67299
 Alpha virt. eigenvalues --    0.67427   0.67997   0.68622   0.71060   0.71971
 Alpha virt. eigenvalues --    0.72042   0.73787   0.75624   0.75917   0.76765
 Alpha virt. eigenvalues --    0.77200   0.78185   0.80028   0.80146   0.81328
 Alpha virt. eigenvalues --    0.81632   0.82449   0.83735   0.83847   0.83848
 Alpha virt. eigenvalues --    0.84611   0.85167   0.85808   0.86910   0.87325
 Alpha virt. eigenvalues --    0.87582   0.88052   0.89947   0.90568   0.90795
 Alpha virt. eigenvalues --    0.91269   0.91601   0.91864   0.92994   0.93556
 Alpha virt. eigenvalues --    0.93788   0.94061   0.95358   0.95665   0.96171
 Alpha virt. eigenvalues --    0.97384   0.97826   0.98073   0.98308   0.98584
 Alpha virt. eigenvalues --    1.00261   1.00363   1.01638   1.02131   1.02770
 Alpha virt. eigenvalues --    1.03938   1.04174   1.06209   1.07230   1.07394
 Alpha virt. eigenvalues --    1.08837   1.09102   1.09739   1.10936   1.14036
 Alpha virt. eigenvalues --    1.15280   1.16448   1.16635   1.18233   1.18724
 Alpha virt. eigenvalues --    1.19193   1.20452   1.23832   1.24059   1.24815
 Alpha virt. eigenvalues --    1.24885   1.26417   1.27101   1.28028   1.29141
 Alpha virt. eigenvalues --    1.30021   1.30046   1.31177   1.33403   1.33746
 Alpha virt. eigenvalues --    1.35910   1.36535   1.36700   1.38299   1.38899
 Alpha virt. eigenvalues --    1.40637   1.41041   1.42409   1.42517   1.44967
 Alpha virt. eigenvalues --    1.45353   1.45686   1.46638   1.47665   1.48339
 Alpha virt. eigenvalues --    1.49410   1.49594   1.50179   1.50337   1.50379
 Alpha virt. eigenvalues --    1.51452   1.52653   1.55067   1.57786   1.57846
 Alpha virt. eigenvalues --    1.59955   1.60606   1.64302   1.65152   1.66397
 Alpha virt. eigenvalues --    1.70713   1.71430   1.73453   1.75131   1.77366
 Alpha virt. eigenvalues --    1.78984   1.80095   1.80498   1.82697   1.82894
 Alpha virt. eigenvalues --    1.85185   1.87054   1.87402   1.87446   1.87552
 Alpha virt. eigenvalues --    1.88887   1.90333   1.91476   1.92595   1.93868
 Alpha virt. eigenvalues --    1.95415   1.95565   1.96727   1.97474   1.97839
 Alpha virt. eigenvalues --    1.98136   1.99161   1.99227   1.99780   1.99895
 Alpha virt. eigenvalues --    2.00814   2.01957   2.02294   2.03120   2.05404
 Alpha virt. eigenvalues --    2.07001   2.07509   2.09723   2.11502   2.13108
 Alpha virt. eigenvalues --    2.13318   2.14464   2.15918   2.15995   2.16386
 Alpha virt. eigenvalues --    2.17087   2.17177   2.19230   2.19264   2.20796
 Alpha virt. eigenvalues --    2.20827   2.21551   2.22368   2.24211   2.24363
 Alpha virt. eigenvalues --    2.24590   2.26790   2.27400   2.27684   2.27842
 Alpha virt. eigenvalues --    2.27873   2.28154   2.28416   2.29139   2.32916
 Alpha virt. eigenvalues --    2.35554   2.36839   2.40259   2.40614   2.40872
 Alpha virt. eigenvalues --    2.42052   2.43346   2.45763   2.47083   2.47295
 Alpha virt. eigenvalues --    2.51822   2.52323   2.56862   2.58289   2.58573
 Alpha virt. eigenvalues --    2.59239   2.59299   2.61022   2.63042   2.63784
 Alpha virt. eigenvalues --    2.65251   2.66829   2.67824   2.69059   2.70429
 Alpha virt. eigenvalues --    2.71048   2.72381   2.74490   2.75795   2.76200
 Alpha virt. eigenvalues --    2.76599   2.76732   2.78586   2.79634   2.82796
 Alpha virt. eigenvalues --    2.84954   2.87113   2.87672   2.88640   2.92390
 Alpha virt. eigenvalues --    2.93337   2.96877   2.97618   2.98758   3.01843
 Alpha virt. eigenvalues --    3.06177   3.07505   3.16662   3.19238   3.19789
 Alpha virt. eigenvalues --    3.28090   3.40701   3.44305   3.47851   3.51221
 Alpha virt. eigenvalues --    3.52237   3.58047   5.55189   5.56311   5.57531
 Alpha virt. eigenvalues --    5.60185   5.61087   5.61769   5.63883  45.69797
 Alpha virt. eigenvalues --   45.89905  45.94930  63.00789
  Beta  occ. eigenvalues --  -14.45009 -14.45009 -14.44679 -14.44679 -10.27473
  Beta  occ. eigenvalues --  -10.27472 -10.27289 -10.27288 -10.27285 -10.27285
  Beta  occ. eigenvalues --  -10.27088 -10.27087 -10.26005 -10.26004 -10.23600
  Beta  occ. eigenvalues --  -10.23600 -10.23483 -10.23483 -10.23018 -10.23018
  Beta  occ. eigenvalues --  -10.22886 -10.22886 -10.22326 -10.22269 -10.22252
  Beta  occ. eigenvalues --  -10.20565  -3.86922  -2.38448  -2.37918  -2.34730
  Beta  occ. eigenvalues --   -1.05665  -1.05568  -0.96737  -0.96292  -0.87985
  Beta  occ. eigenvalues --   -0.87604  -0.85388  -0.80208  -0.78751  -0.77604
  Beta  occ. eigenvalues --   -0.77530  -0.75501  -0.74791  -0.73026  -0.72408
  Beta  occ. eigenvalues --   -0.66746  -0.65068  -0.64138  -0.63938  -0.62754
  Beta  occ. eigenvalues --   -0.61224  -0.58754  -0.57742  -0.56395  -0.53844
  Beta  occ. eigenvalues --   -0.52979  -0.51963  -0.49254  -0.49184  -0.49097
  Beta  occ. eigenvalues --   -0.48262  -0.47779  -0.47207  -0.46757  -0.45836
  Beta  occ. eigenvalues --   -0.45731  -0.45219  -0.44792  -0.44470  -0.43829
  Beta  occ. eigenvalues --   -0.42463  -0.41960  -0.41345  -0.38616  -0.38601
  Beta  occ. eigenvalues --   -0.38477  -0.37392  -0.37226  -0.36751  -0.36472
  Beta  occ. eigenvalues --   -0.36285  -0.34900  -0.34011  -0.33217  -0.31374
  Beta  occ. eigenvalues --   -0.29762  -0.29584  -0.26402  -0.25882  -0.25191
  Beta  occ. eigenvalues --   -0.24457  -0.23901  -0.21987  -0.20566  -0.20382
  Beta  occ. eigenvalues --   -0.19882
  Beta virt. eigenvalues --   -0.04732  -0.04234  -0.01192  -0.00437   0.00085
  Beta virt. eigenvalues --    0.01244   0.01664   0.02470   0.03727   0.05605
  Beta virt. eigenvalues --    0.05915   0.05971   0.08001   0.09208   0.09317
  Beta virt. eigenvalues --    0.10282   0.10743   0.12676   0.13062   0.13980
  Beta virt. eigenvalues --    0.14175   0.15438   0.15590   0.16029   0.16062
  Beta virt. eigenvalues --    0.16694   0.16993   0.17017   0.17821   0.18089
  Beta virt. eigenvalues --    0.18669   0.19017   0.19551   0.20009   0.20430
  Beta virt. eigenvalues --    0.21485   0.22086   0.22981   0.23080   0.23231
  Beta virt. eigenvalues --    0.24246   0.25962   0.26088   0.26340   0.27534
  Beta virt. eigenvalues --    0.27660   0.28067   0.29307   0.29326   0.30716
  Beta virt. eigenvalues --    0.31356   0.31771   0.33040   0.33548   0.34508
  Beta virt. eigenvalues --    0.34807   0.36642   0.37749   0.38144   0.39639
  Beta virt. eigenvalues --    0.39738   0.41435   0.42552   0.44725   0.45480
  Beta virt. eigenvalues --    0.46863   0.47294   0.47997   0.50660   0.51007
  Beta virt. eigenvalues --    0.51900   0.52479   0.53983   0.54227   0.56317
  Beta virt. eigenvalues --    0.56405   0.56659   0.56738   0.57367   0.58137
  Beta virt. eigenvalues --    0.58702   0.58858   0.59069   0.59820   0.60587
  Beta virt. eigenvalues --    0.61470   0.61772   0.61814   0.63071   0.63226
  Beta virt. eigenvalues --    0.63359   0.63624   0.63709   0.63762   0.63989
  Beta virt. eigenvalues --    0.64177   0.64712   0.65131   0.66304   0.66395
  Beta virt. eigenvalues --    0.67438   0.67477   0.67764   0.68055   0.68829
  Beta virt. eigenvalues --    0.71054   0.72131   0.72386   0.74174   0.75701
  Beta virt. eigenvalues --    0.76150   0.76869   0.77400   0.78699   0.80297
  Beta virt. eigenvalues --    0.80547   0.81519   0.81865   0.82638   0.83943
  Beta virt. eigenvalues --    0.83967   0.84246   0.84673   0.85429   0.85990
  Beta virt. eigenvalues --    0.87339   0.87353   0.87597   0.88079   0.89987
  Beta virt. eigenvalues --    0.90850   0.90852   0.91446   0.91730   0.91985
  Beta virt. eigenvalues --    0.93050   0.93576   0.94121   0.94661   0.95727
  Beta virt. eigenvalues --    0.96503   0.96698   0.97398   0.97857   0.98371
  Beta virt. eigenvalues --    0.98480   0.98604   1.00373   1.00380   1.01747
  Beta virt. eigenvalues --    1.02193   1.02824   1.04037   1.04223   1.06292
  Beta virt. eigenvalues --    1.07301   1.08734   1.09189   1.09770   1.11231
  Beta virt. eigenvalues --    1.14135   1.15280   1.15385   1.16496   1.16663
  Beta virt. eigenvalues --    1.18292   1.18759   1.19235   1.20563   1.23981
  Beta virt. eigenvalues --    1.24274   1.24870   1.24943   1.26617   1.27307
  Beta virt. eigenvalues --    1.28460   1.29364   1.30242   1.30269   1.31306
  Beta virt. eigenvalues --    1.33778   1.34049   1.36205   1.36826   1.36996
  Beta virt. eigenvalues --    1.38822   1.39080   1.40799   1.41298   1.42632
  Beta virt. eigenvalues --    1.42912   1.45038   1.45451   1.45825   1.46796
  Beta virt. eigenvalues --    1.47774   1.48437   1.49587   1.49634   1.50388
  Beta virt. eigenvalues --    1.50460   1.50587   1.51748   1.53074   1.56268
  Beta virt. eigenvalues --    1.57832   1.58173   1.60726   1.60800   1.64972
  Beta virt. eigenvalues --    1.65626   1.66681   1.70841   1.71913   1.73621
  Beta virt. eigenvalues --    1.75260   1.77397   1.79319   1.80311   1.80661
  Beta virt. eigenvalues --    1.82811   1.82971   1.85294   1.87172   1.87426
  Beta virt. eigenvalues --    1.87561   1.87656   1.89035   1.90551   1.91543
  Beta virt. eigenvalues --    1.92667   1.93913   1.95467   1.95612   1.96834
  Beta virt. eigenvalues --    1.97569   1.97976   1.98280   1.99280   1.99366
  Beta virt. eigenvalues --    1.99844   2.00138   2.00843   2.02000   2.02363
  Beta virt. eigenvalues --    2.03278   2.05606   2.07099   2.07608   2.09932
  Beta virt. eigenvalues --    2.11831   2.13297   2.13443   2.14773   2.15958
  Beta virt. eigenvalues --    2.16098   2.16480   2.17235   2.17265   2.19346
  Beta virt. eigenvalues --    2.19605   2.20923   2.20935   2.21667   2.22560
  Beta virt. eigenvalues --    2.24618   2.24687   2.24742   2.27032   2.27590
  Beta virt. eigenvalues --    2.27796   2.27974   2.28101   2.28314   2.28423
  Beta virt. eigenvalues --    2.29340   2.33014   2.36076   2.37091   2.40367
  Beta virt. eigenvalues --    2.40780   2.41082   2.43784   2.44735   2.47129
  Beta virt. eigenvalues --    2.47801   2.48668   2.51914   2.52446   2.57105
  Beta virt. eigenvalues --    2.58610   2.58685   2.59368   2.59631   2.61086
  Beta virt. eigenvalues --    2.63168   2.64028   2.65547   2.66947   2.67978
  Beta virt. eigenvalues --    2.69194   2.70678   2.71234   2.72614   2.74629
  Beta virt. eigenvalues --    2.75959   2.76332   2.76809   2.76923   2.78858
  Beta virt. eigenvalues --    2.79614   2.82897   2.86889   2.87532   2.87685
  Beta virt. eigenvalues --    2.88853   2.93038   2.93727   2.97086   2.97760
  Beta virt. eigenvalues --    2.99206   3.02409   3.06357   3.07864   3.16690
  Beta virt. eigenvalues --    3.19529   3.20193   3.28011   3.41113   3.44928
  Beta virt. eigenvalues --    3.47874   3.51182   3.52654   3.60262   5.61158
  Beta virt. eigenvalues --    5.63003   5.63072   5.63957   5.64617   5.67291
  Beta virt. eigenvalues --    5.69087  45.80011  45.98139  46.00810  63.06743
          Condensed to atoms (all electrons):
               1          2          3          4          5          6
     1  C    5.239641   0.491770  -0.071525  -0.047980  -0.071525   0.491771
     2  C    0.491770   4.598513   0.537361  -0.004808  -0.038512  -0.015287
     3  C   -0.071525   0.537361   5.036730   0.519422  -0.038639  -0.038512
     4  C   -0.047980  -0.004808   0.519422   4.916555   0.519420  -0.004808
     5  C   -0.071525  -0.038512  -0.038639   0.519420   5.036734   0.537363
     6  C    0.491771  -0.015287  -0.038512  -0.004808   0.537363   4.598511
     7  H    0.005103  -0.037940   0.349567  -0.038957   0.003948   0.000509
     8  H    0.001314   0.002399  -0.035343   0.365540  -0.035343   0.002399
     9  H    0.005103   0.000509   0.003948  -0.038956   0.349567  -0.037940
    10  C    0.007499  -0.000011   0.000001   0.000131  -0.006394  -0.046311
    11  C    0.015339   0.002895  -0.000092   0.000046   0.003019  -0.070948
    12  C   -0.000848   0.000000   0.000000   0.000000   0.000147   0.007845
    13  C    0.000180   0.000002  -0.000002   0.000068   0.001874  -0.005115
    14  C    0.000000  -0.000000   0.000000  -0.000000   0.000002  -0.000031
    15  C    0.000002  -0.000000   0.000000  -0.000001   0.000082   0.000075
    16  H   -0.000036   0.000001   0.000001   0.000120   0.000071   0.000622
    17  C    0.000000   0.000000  -0.000000   0.000000  -0.000001  -0.000004
    18  H   -0.000000   0.000000   0.000000   0.000000  -0.000000   0.000003
    19  H   -0.000000   0.000000  -0.000000   0.000000   0.000002  -0.000003
    20  H   -0.000000  -0.000000   0.000000  -0.000000  -0.000000  -0.000000
    21  C    0.007499  -0.046311  -0.006394   0.000131   0.000001  -0.000011
    22  C    0.015339  -0.070949   0.003019   0.000046  -0.000092   0.002895
    23  C   -0.000848   0.007845   0.000147   0.000000   0.000000   0.000000
    24  C    0.000180  -0.005115   0.001874   0.000068  -0.000002   0.000002
    25  C    0.000000  -0.000031   0.000002  -0.000000   0.000000  -0.000000
    26  C    0.000002   0.000075   0.000082  -0.000001   0.000000  -0.000000
    27  H   -0.000036   0.000622   0.000071   0.000120   0.000001   0.000001
    28  C    0.000000  -0.000004  -0.000001   0.000000  -0.000000   0.000000
    29  H   -0.000000   0.000003  -0.000000   0.000000   0.000000   0.000000
    30  H   -0.000000  -0.000003   0.000002   0.000000  -0.000000   0.000000
    31  H   -0.000000  -0.000000  -0.000000  -0.000000   0.000000  -0.000000
    32  N   -0.035160   0.267765  -0.068364   0.004347   0.000527   0.006509
    33  N    0.001379   0.006464  -0.000170   0.000001   0.000000  -0.000043
    34  N   -0.035160   0.006509   0.000527   0.004347  -0.068364   0.267762
    35  N    0.001379  -0.000043   0.000000   0.000001  -0.000170   0.006464
    36  C   -0.000016   0.000000  -0.000000  -0.000000   0.000002  -0.000061
    37  H   -0.000000  -0.000000   0.000000   0.000000  -0.000000   0.000004
    38  H   -0.000000  -0.000000   0.000000   0.000000  -0.000000   0.000004
    39  H   -0.000022   0.000001   0.000000  -0.000000   0.000000  -0.000013
    40  C   -0.000016  -0.000061   0.000002  -0.000000  -0.000000   0.000000
    41  H   -0.000000   0.000004  -0.000000   0.000000   0.000000  -0.000000
    42  H   -0.000000   0.000004  -0.000000   0.000000   0.000000  -0.000000
    43  H   -0.000022  -0.000013   0.000000  -0.000000   0.000000   0.000001
    44  Co   0.271009  -0.068759   0.003304   0.003002   0.003304  -0.068759
               7          8          9         10         11         12
     1  C    0.005103   0.001314   0.005103   0.007499   0.015339  -0.000848
     2  C   -0.037940   0.002399   0.000509  -0.000011   0.002895   0.000000
     3  C    0.349567  -0.035343   0.003948   0.000001  -0.000092   0.000000
     4  C   -0.038957   0.365540  -0.038956   0.000131   0.000046   0.000000
     5  C    0.003948  -0.035343   0.349567  -0.006394   0.003019   0.000147
     6  C    0.000509   0.002399  -0.037940  -0.046311  -0.070948   0.007845
     7  H    0.549675  -0.004161  -0.000106  -0.000000  -0.000000   0.000000
     8  H   -0.004161   0.544031  -0.004161  -0.000002   0.000001  -0.000000
     9  H   -0.000106  -0.004161   0.549675   0.000362  -0.000160  -0.000036
    10  C   -0.000000  -0.000002   0.000362   4.640365  -0.070415   0.514351
    11  C   -0.000000   0.000001  -0.000160  -0.070415   4.827341  -0.056295
    12  C    0.000000  -0.000000  -0.000036   0.514351  -0.056295   4.651061
    13  C   -0.000000   0.000003   0.000037   0.539068   0.004810  -0.056825
    14  C   -0.000000   0.000000   0.000000  -0.048998   0.005763   0.534348
    15  C   -0.000000   0.000000   0.000129  -0.006251  -0.000077  -0.038177
    16  H   -0.000000  -0.000011   0.006262  -0.034587  -0.000155   0.003762
    17  C    0.000000  -0.000000   0.000001  -0.039826  -0.000082  -0.007770
    18  H    0.000000  -0.000000  -0.000000   0.003910  -0.000211  -0.038217
    19  H    0.000000   0.000000  -0.000009   0.001996   0.000003   0.000948
    20  H   -0.000000  -0.000000   0.000000   0.000922   0.000003   0.002279
    21  C    0.000362  -0.000002  -0.000000  -0.000000  -0.000008   0.000000
    22  C   -0.000160   0.000001  -0.000000  -0.000008  -0.017089  -0.000003
    23  C   -0.000036  -0.000000   0.000000   0.000000  -0.000003  -0.000000
    24  C    0.000037   0.000003  -0.000000   0.000000   0.000000  -0.000000
    25  C    0.000000   0.000000  -0.000000  -0.000000   0.000000   0.000000
    26  C    0.000129   0.000000  -0.000000  -0.000000  -0.000000   0.000000
    27  H    0.006262  -0.000011  -0.000000   0.000000   0.000000  -0.000000
    28  C    0.000001  -0.000000   0.000000   0.000000  -0.000000  -0.000000
    29  H   -0.000000  -0.000000   0.000000   0.000000   0.000000  -0.000000
    30  H   -0.000009   0.000000   0.000000   0.000000   0.000000   0.000000
    31  H    0.000000  -0.000000  -0.000000   0.000000   0.000000   0.000000
    32  N   -0.004407  -0.000105   0.000006   0.000000   0.000338   0.000000
    33  N    0.000002  -0.000000  -0.000000  -0.000000   0.000026   0.000000
    34  N    0.000006  -0.000105  -0.004407   0.261375   0.348212  -0.039292
    35  N   -0.000000  -0.000000   0.000002  -0.044485   0.311122   0.274208
    36  C   -0.000000   0.000000  -0.000000   0.005831  -0.042559  -0.047932
    37  H    0.000000  -0.000000  -0.000000  -0.000143   0.000695  -0.001357
    38  H    0.000000  -0.000000  -0.000000  -0.000143   0.000692  -0.001354
    39  H    0.000000   0.000000   0.000000   0.000017  -0.000372   0.002630
    40  C   -0.000000   0.000000  -0.000000   0.000000   0.000018   0.000000
    41  H   -0.000000  -0.000000   0.000000  -0.000000  -0.000000  -0.000000
    42  H   -0.000000  -0.000000   0.000000  -0.000000  -0.000000  -0.000000
    43  H    0.000000   0.000000   0.000000   0.000000  -0.000002  -0.000000
    44  Co  -0.000510   0.000149  -0.000510   0.007837   0.370305   0.004688
              13         14         15         16         17         18
     1  C    0.000180   0.000000   0.000002  -0.000036   0.000000  -0.000000
     2  C    0.000002  -0.000000  -0.000000   0.000001   0.000000   0.000000
     3  C   -0.000002   0.000000   0.000000   0.000001  -0.000000   0.000000
     4  C    0.000068  -0.000000  -0.000001   0.000120   0.000000   0.000000
     5  C    0.001874   0.000002   0.000082   0.000071  -0.000001  -0.000000
     6  C   -0.005115  -0.000031   0.000075   0.000622  -0.000004   0.000003
     7  H   -0.000000  -0.000000  -0.000000  -0.000000   0.000000   0.000000
     8  H    0.000003   0.000000   0.000000  -0.000011  -0.000000  -0.000000
     9  H    0.000037   0.000000   0.000129   0.006262   0.000001  -0.000000
    10  C    0.539068  -0.048998  -0.006251  -0.034587  -0.039826   0.003910
    11  C    0.004810   0.005763  -0.000077  -0.000155  -0.000082  -0.000211
    12  C   -0.056825   0.534348  -0.038177   0.003762  -0.007770  -0.038217
    13  C    5.025912  -0.044461   0.509255   0.355525  -0.035944   0.000280
    14  C   -0.044461   5.035707  -0.038299   0.000453   0.515232   0.362456
    15  C    0.509255  -0.038299   4.898250  -0.035990   0.558755   0.003907
    16  H    0.355525   0.000453  -0.035990   0.518794   0.003720   0.000014
    17  C   -0.035944   0.515232   0.558755   0.003720   4.888882  -0.035738
    18  H    0.000280   0.362456   0.003907   0.000014  -0.035738   0.536552
    19  H   -0.036331   0.004012   0.368859  -0.004104  -0.036072  -0.000147
    20  H    0.004025  -0.037137  -0.036259  -0.000149   0.368463  -0.004221
    21  C    0.000000  -0.000000  -0.000000   0.000000   0.000000   0.000000
    22  C    0.000000   0.000000  -0.000000   0.000000  -0.000000   0.000000
    23  C   -0.000000   0.000000   0.000000  -0.000000  -0.000000  -0.000000
    24  C    0.000000   0.000000  -0.000000   0.000000   0.000000   0.000000
    25  C    0.000000  -0.000000   0.000000  -0.000000  -0.000000   0.000000
    26  C   -0.000000   0.000000  -0.000000  -0.000000   0.000000   0.000000
    27  H    0.000000  -0.000000  -0.000000   0.000000   0.000000  -0.000000
    28  C    0.000000  -0.000000   0.000000   0.000000   0.000000   0.000000
    29  H    0.000000   0.000000   0.000000  -0.000000   0.000000  -0.000000
    30  H   -0.000000  -0.000000   0.000000  -0.000000   0.000000   0.000000
    31  H   -0.000000   0.000000   0.000000  -0.000000   0.000000   0.000000
    32  N   -0.000000   0.000000   0.000000   0.000000   0.000000  -0.000000
    33  N    0.000000  -0.000000   0.000000   0.000000   0.000000  -0.000000
    34  N   -0.077939   0.009121   0.005200  -0.004929  -0.000187  -0.000091
    35  N    0.009386  -0.084496  -0.000136  -0.000099   0.005404  -0.007221
    36  C   -0.000117  -0.002963   0.000009   0.000003  -0.000117   0.004164
    37  H   -0.000009   0.002790  -0.000002  -0.000000  -0.000006   0.000537
    38  H   -0.000009   0.002788  -0.000002  -0.000000  -0.000006   0.000536
    39  H    0.000006   0.000027  -0.000000  -0.000000   0.000001  -0.000034
    40  C    0.000000   0.000000  -0.000000   0.000000   0.000000  -0.000000
    41  H    0.000000   0.000000  -0.000000   0.000000  -0.000000  -0.000000
    42  H    0.000000   0.000000  -0.000000   0.000000  -0.000000  -0.000000
    43  H    0.000000   0.000000  -0.000000   0.000000  -0.000000   0.000000
    44  Co  -0.000517  -0.000478  -0.000006   0.000055   0.000006   0.000016
              19         20         21         22         23         24
     1  C   -0.000000  -0.000000   0.007499   0.015339  -0.000848   0.000180
     2  C    0.000000  -0.000000  -0.046311  -0.070949   0.007845  -0.005115
     3  C   -0.000000   0.000000  -0.006394   0.003019   0.000147   0.001874
     4  C    0.000000  -0.000000   0.000131   0.000046   0.000000   0.000068
     5  C    0.000002  -0.000000   0.000001  -0.000092   0.000000  -0.000002
     6  C   -0.000003  -0.000000  -0.000011   0.002895   0.000000   0.000002
     7  H    0.000000  -0.000000   0.000362  -0.000160  -0.000036   0.000037
     8  H    0.000000  -0.000000  -0.000002   0.000001  -0.000000   0.000003
     9  H   -0.000009   0.000000  -0.000000  -0.000000   0.000000  -0.000000
    10  C    0.001996   0.000922  -0.000000  -0.000008   0.000000   0.000000
    11  C    0.000003   0.000003  -0.000008  -0.017089  -0.000003   0.000000
    12  C    0.000948   0.002279   0.000000  -0.000003  -0.000000  -0.000000
    13  C   -0.036331   0.004025   0.000000   0.000000  -0.000000   0.000000
    14  C    0.004012  -0.037137  -0.000000   0.000000   0.000000   0.000000
    15  C    0.368859  -0.036259  -0.000000  -0.000000   0.000000  -0.000000
    16  H   -0.004104  -0.000149   0.000000   0.000000  -0.000000   0.000000
    17  C   -0.036072   0.368463   0.000000  -0.000000  -0.000000   0.000000
    18  H   -0.000147  -0.004221   0.000000   0.000000  -0.000000   0.000000
    19  H    0.535362  -0.004649   0.000000   0.000000   0.000000  -0.000000
    20  H   -0.004649   0.538069   0.000000   0.000000   0.000000  -0.000000
    21  C    0.000000   0.000000   4.640366  -0.070414   0.514351   0.539069
    22  C    0.000000   0.000000  -0.070414   4.827346  -0.056295   0.004810
    23  C    0.000000   0.000000   0.514351  -0.056295   4.651060  -0.056825
    24  C   -0.000000  -0.000000   0.539069   0.004810  -0.056825   5.025912
    25  C   -0.000000   0.000000  -0.048998   0.005763   0.534347  -0.044461
    26  C    0.000000   0.000000  -0.006251  -0.000077  -0.038177   0.509254
    27  H   -0.000000  -0.000000  -0.034587  -0.000155   0.003762   0.355526
    28  C    0.000000   0.000000  -0.039826  -0.000082  -0.007770  -0.035944
    29  H    0.000000   0.000000   0.003910  -0.000211  -0.038217   0.000280
    30  H    0.000000   0.000000   0.001996   0.000003   0.000948  -0.036331
    31  H    0.000000   0.000000   0.000922   0.000003   0.002279   0.004025
    32  N   -0.000000   0.000000   0.261375   0.348210  -0.039292  -0.077939
    33  N   -0.000000  -0.000000  -0.044485   0.311122   0.274209   0.009386
    34  N   -0.000092   0.000004   0.000000   0.000338   0.000000  -0.000000
    35  N    0.000004  -0.000099  -0.000000   0.000026   0.000000   0.000000
    36  C   -0.000000  -0.000002   0.000000   0.000018   0.000000   0.000000
    37  H   -0.000000  -0.000000  -0.000000  -0.000000  -0.000000   0.000000
    38  H   -0.000000  -0.000000  -0.000000  -0.000000  -0.000000   0.000000
    39  H   -0.000000  -0.000000   0.000000  -0.000002  -0.000000   0.000000
    40  C    0.000000  -0.000000   0.005831  -0.042559  -0.047932  -0.000117
    41  H   -0.000000   0.000000  -0.000143   0.000692  -0.001353  -0.000009
    42  H   -0.000000   0.000000  -0.000143   0.000695  -0.001357  -0.000009
    43  H    0.000000   0.000000   0.000017  -0.000372   0.002630   0.000006
    44  Co   0.000017  -0.000004   0.007837   0.370306   0.004688  -0.000517
              25         26         27         28         29         30
     1  C    0.000000   0.000002  -0.000036   0.000000  -0.000000  -0.000000
     2  C   -0.000031   0.000075   0.000622  -0.000004   0.000003  -0.000003
     3  C    0.000002   0.000082   0.000071  -0.000001  -0.000000   0.000002
     4  C   -0.000000  -0.000001   0.000120   0.000000   0.000000   0.000000
     5  C    0.000000   0.000000   0.000001  -0.000000   0.000000  -0.000000
     6  C   -0.000000  -0.000000   0.000001   0.000000   0.000000   0.000000
     7  H    0.000000   0.000129   0.006262   0.000001  -0.000000  -0.000009
     8  H    0.000000   0.000000  -0.000011  -0.000000  -0.000000   0.000000
     9  H   -0.000000  -0.000000  -0.000000   0.000000   0.000000   0.000000
    10  C   -0.000000  -0.000000   0.000000   0.000000   0.000000   0.000000
    11  C    0.000000  -0.000000   0.000000  -0.000000   0.000000   0.000000
    12  C    0.000000   0.000000  -0.000000  -0.000000  -0.000000   0.000000
    13  C    0.000000  -0.000000   0.000000   0.000000   0.000000  -0.000000
    14  C   -0.000000   0.000000  -0.000000  -0.000000   0.000000  -0.000000
    15  C    0.000000  -0.000000  -0.000000   0.000000   0.000000   0.000000
    16  H   -0.000000  -0.000000   0.000000   0.000000  -0.000000  -0.000000
    17  C   -0.000000   0.000000   0.000000   0.000000   0.000000   0.000000
    18  H    0.000000   0.000000  -0.000000   0.000000  -0.000000   0.000000
    19  H   -0.000000   0.000000  -0.000000   0.000000   0.000000   0.000000
    20  H    0.000000   0.000000  -0.000000   0.000000   0.000000   0.000000
    21  C   -0.048998  -0.006251  -0.034587  -0.039826   0.003910   0.001996
    22  C    0.005763  -0.000077  -0.000155  -0.000082  -0.000211   0.000003
    23  C    0.534347  -0.038177   0.003762  -0.007770  -0.038217   0.000948
    24  C   -0.044461   0.509254   0.355526  -0.035944   0.000280  -0.036331
    25  C    5.035708  -0.038299   0.000453   0.515232   0.362456   0.004012
    26  C   -0.038299   4.898251  -0.035990   0.558756   0.003907   0.368859
    27  H    0.000453  -0.035990   0.518794   0.003720   0.000014  -0.004104
    28  C    0.515232   0.558756   0.003720   4.888880  -0.035738  -0.036072
    29  H    0.362456   0.003907   0.000014  -0.035738   0.536552  -0.000147
    30  H    0.004012   0.368859  -0.004104  -0.036072  -0.000147   0.535363
    31  H   -0.037137  -0.036259  -0.000149   0.368463  -0.004221  -0.004649
    32  N    0.009120   0.005200  -0.004929  -0.000187  -0.000091  -0.000092
    33  N   -0.084496  -0.000136  -0.000099   0.005404  -0.007221   0.000004
    34  N    0.000000   0.000000   0.000000   0.000000  -0.000000  -0.000000
    35  N   -0.000000   0.000000   0.000000   0.000000  -0.000000  -0.000000
    36  C    0.000000  -0.000000   0.000000   0.000000  -0.000000   0.000000
    37  H    0.000000  -0.000000   0.000000  -0.000000  -0.000000  -0.000000
    38  H    0.000000  -0.000000   0.000000  -0.000000  -0.000000  -0.000000
    39  H    0.000000  -0.000000   0.000000  -0.000000   0.000000   0.000000
    40  C   -0.002963   0.000009   0.000003  -0.000117   0.004164  -0.000000
    41  H    0.002788  -0.000002  -0.000000  -0.000006   0.000536  -0.000000
    42  H    0.002790  -0.000002  -0.000000  -0.000006   0.000537  -0.000000
    43  H    0.000027  -0.000000  -0.000000   0.000001  -0.000034  -0.000000
    44  Co  -0.000478  -0.000006   0.000055   0.000006   0.000016   0.000017
              31         32         33         34         35         36
     1  C   -0.000000  -0.035160   0.001379  -0.035160   0.001379  -0.000016
     2  C   -0.000000   0.267765   0.006464   0.006509  -0.000043   0.000000
     3  C   -0.000000  -0.068364  -0.000170   0.000527   0.000000  -0.000000
     4  C   -0.000000   0.004347   0.000001   0.004347   0.000001  -0.000000
     5  C    0.000000   0.000527   0.000000  -0.068364  -0.000170   0.000002
     6  C   -0.000000   0.006509  -0.000043   0.267762   0.006464  -0.000061
     7  H    0.000000  -0.004407   0.000002   0.000006  -0.000000  -0.000000
     8  H   -0.000000  -0.000105  -0.000000  -0.000105  -0.000000   0.000000
     9  H   -0.000000   0.000006  -0.000000  -0.004407   0.000002  -0.000000
    10  C    0.000000   0.000000  -0.000000   0.261375  -0.044485   0.005831
    11  C    0.000000   0.000338   0.000026   0.348212   0.311122  -0.042559
    12  C    0.000000   0.000000   0.000000  -0.039292   0.274208  -0.047932
    13  C   -0.000000  -0.000000   0.000000  -0.077939   0.009386  -0.000117
    14  C    0.000000   0.000000  -0.000000   0.009121  -0.084496  -0.002963
    15  C    0.000000   0.000000   0.000000   0.005200  -0.000136   0.000009
    16  H   -0.000000   0.000000   0.000000  -0.004929  -0.000099   0.000003
    17  C    0.000000   0.000000   0.000000  -0.000187   0.005404  -0.000117
    18  H    0.000000  -0.000000  -0.000000  -0.000091  -0.007221   0.004164
    19  H    0.000000  -0.000000  -0.000000  -0.000092   0.000004  -0.000000
    20  H    0.000000   0.000000  -0.000000   0.000004  -0.000099  -0.000002
    21  C    0.000922   0.261375  -0.044485   0.000000  -0.000000   0.000000
    22  C    0.000003   0.348210   0.311122   0.000338   0.000026   0.000018
    23  C    0.002279  -0.039292   0.274209   0.000000   0.000000   0.000000
    24  C    0.004025  -0.077939   0.009386  -0.000000   0.000000   0.000000
    25  C   -0.037137   0.009120  -0.084496   0.000000  -0.000000   0.000000
    26  C   -0.036259   0.005200  -0.000136   0.000000   0.000000  -0.000000
    27  H   -0.000149  -0.004929  -0.000099   0.000000   0.000000   0.000000
    28  C    0.368463  -0.000187   0.005404   0.000000   0.000000   0.000000
    29  H   -0.004221  -0.000091  -0.007221  -0.000000  -0.000000  -0.000000
    30  H   -0.004649  -0.000092   0.000004  -0.000000  -0.000000   0.000000
    31  H    0.538069   0.000004  -0.000099   0.000000  -0.000000  -0.000000
    32  N    0.000004   7.185067  -0.059720  -0.000145   0.000001  -0.000000
    33  N   -0.000099  -0.059720   7.059831   0.000001  -0.000000  -0.000000
    34  N    0.000000  -0.000145   0.000001   7.185069  -0.059720   0.004759
    35  N   -0.000000   0.000001  -0.000000  -0.059720   7.059832   0.298832
    36  C   -0.000000  -0.000000  -0.000000   0.004759   0.298832   5.049290
    37  H    0.000000   0.000000  -0.000000  -0.000068  -0.042226   0.377822
    38  H    0.000000   0.000000  -0.000000  -0.000068  -0.042231   0.377825
    39  H    0.000000  -0.000000   0.000001   0.000146  -0.032499   0.377272
    40  C   -0.000002   0.004759   0.298832  -0.000000  -0.000000   0.000000
    41  H   -0.000000  -0.000068  -0.042231   0.000000  -0.000000  -0.000000
    42  H   -0.000000  -0.000068  -0.042225   0.000000  -0.000000  -0.000000
    43  H   -0.000000   0.000146  -0.032499  -0.000000   0.000001  -0.000001
    44  Co  -0.000004  -0.081278  -0.053148  -0.081278  -0.053148  -0.002892
              37         38         39         40         41         42
     1  C   -0.000000  -0.000000  -0.000022  -0.000016  -0.000000  -0.000000
     2  C   -0.000000  -0.000000   0.000001  -0.000061   0.000004   0.000004
     3  C    0.000000   0.000000   0.000000   0.000002  -0.000000  -0.000000
     4  C    0.000000   0.000000  -0.000000  -0.000000   0.000000   0.000000
     5  C   -0.000000  -0.000000   0.000000  -0.000000   0.000000   0.000000
     6  C    0.000004   0.000004  -0.000013   0.000000  -0.000000  -0.000000
     7  H    0.000000   0.000000   0.000000  -0.000000  -0.000000  -0.000000
     8  H   -0.000000  -0.000000   0.000000   0.000000  -0.000000  -0.000000
     9  H   -0.000000  -0.000000   0.000000  -0.000000   0.000000   0.000000
    10  C   -0.000143  -0.000143   0.000017   0.000000  -0.000000  -0.000000
    11  C    0.000695   0.000692  -0.000372   0.000018  -0.000000  -0.000000
    12  C   -0.001357  -0.001354   0.002630   0.000000  -0.000000  -0.000000
    13  C   -0.000009  -0.000009   0.000006   0.000000   0.000000   0.000000
    14  C    0.002790   0.002788   0.000027   0.000000   0.000000   0.000000
    15  C   -0.000002  -0.000002  -0.000000  -0.000000  -0.000000  -0.000000
    16  H   -0.000000  -0.000000  -0.000000   0.000000   0.000000   0.000000
    17  C   -0.000006  -0.000006   0.000001   0.000000  -0.000000  -0.000000
    18  H    0.000537   0.000536  -0.000034  -0.000000  -0.000000  -0.000000
    19  H   -0.000000  -0.000000  -0.000000   0.000000  -0.000000  -0.000000
    20  H   -0.000000  -0.000000  -0.000000  -0.000000   0.000000   0.000000
    21  C   -0.000000  -0.000000   0.000000   0.005831  -0.000143  -0.000143
    22  C   -0.000000  -0.000000  -0.000002  -0.042559   0.000692   0.000695
    23  C   -0.000000  -0.000000  -0.000000  -0.047932  -0.001353  -0.001357
    24  C    0.000000   0.000000   0.000000  -0.000117  -0.000009  -0.000009
    25  C    0.000000   0.000000   0.000000  -0.002963   0.002788   0.002790
    26  C   -0.000000  -0.000000  -0.000000   0.000009  -0.000002  -0.000002
    27  H    0.000000   0.000000   0.000000   0.000003  -0.000000  -0.000000
    28  C   -0.000000  -0.000000  -0.000000  -0.000117  -0.000006  -0.000006
    29  H   -0.000000  -0.000000   0.000000   0.004164   0.000536   0.000537
    30  H   -0.000000  -0.000000   0.000000  -0.000000  -0.000000  -0.000000
    31  H    0.000000   0.000000   0.000000  -0.000002  -0.000000  -0.000000
    32  N    0.000000   0.000000  -0.000000   0.004759  -0.000068  -0.000068
    33  N   -0.000000  -0.000000   0.000001   0.298832  -0.042231  -0.042225
    34  N   -0.000068  -0.000068   0.000146  -0.000000   0.000000   0.000000
    35  N   -0.042226  -0.042231  -0.032499  -0.000000  -0.000000  -0.000000
    36  C    0.377822   0.377825   0.377272   0.000000  -0.000000  -0.000000
    37  H    0.524682  -0.040348  -0.025457  -0.000000  -0.000000   0.000000
    38  H   -0.040348   0.524681  -0.025464  -0.000000   0.000000  -0.000000
    39  H   -0.025457  -0.025464   0.482115  -0.000001   0.000000   0.000000
    40  C   -0.000000  -0.000000  -0.000001   5.049290   0.377825   0.377822
    41  H   -0.000000   0.000000   0.000000   0.377825   0.524682  -0.040348
    42  H    0.000000  -0.000000   0.000000   0.377822  -0.040348   0.524682
    43  H    0.000000   0.000000  -0.000023   0.377272  -0.025464  -0.025457
    44  Co   0.000977   0.000982   0.007232  -0.002892   0.000983   0.000977
              43         44
     1  C   -0.000022   0.271009
     2  C   -0.000013  -0.068759
     3  C    0.000000   0.003304
     4  C   -0.000000   0.003002
     5  C    0.000000   0.003304
     6  C    0.000001  -0.068759
     7  H    0.000000  -0.000510
     8  H    0.000000   0.000149
     9  H    0.000000  -0.000510
    10  C    0.000000   0.007837
    11  C   -0.000002   0.370305
    12  C   -0.000000   0.004688
    13  C    0.000000  -0.000517
    14  C    0.000000  -0.000478
    15  C   -0.000000  -0.000006
    16  H    0.000000   0.000055
    17  C   -0.000000   0.000006
    18  H    0.000000   0.000016
    19  H    0.000000   0.000017
    20  H    0.000000  -0.000004
    21  C    0.000017   0.007837
    22  C   -0.000372   0.370306
    23  C    0.002630   0.004688
    24  C    0.000006  -0.000517
    25  C    0.000027  -0.000478
    26  C   -0.000000  -0.000006
    27  H   -0.000000   0.000055
    28  C    0.000001   0.000006
    29  H   -0.000034   0.000016
    30  H   -0.000000   0.000017
    31  H   -0.000000  -0.000004
    32  N    0.000146  -0.081278
    33  N   -0.032499  -0.053148
    34  N   -0.000000  -0.081278
    35  N    0.000001  -0.053148
    36  C   -0.000001  -0.002892
    37  H    0.000000   0.000977
    38  H    0.000000   0.000982
    39  H   -0.000023   0.007232
    40  C    0.377272  -0.002892
    41  H   -0.025464   0.000983
    42  H   -0.025457   0.000977
    43  H    0.482115   0.007232
    44  Co   0.007232  16.285059
          Atomic-Atomic Spin Densities.
               1          2          3          4          5          6
     1  C   -0.234598  -0.010005   0.003737   0.003623   0.003737  -0.010005
     2  C   -0.010005   0.106979   0.005905  -0.003822   0.000917   0.002998
     3  C    0.003737   0.005905  -0.082403  -0.005897   0.000508   0.000917
     4  C    0.003623  -0.003822  -0.005897   0.133535  -0.005898  -0.003822
     5  C    0.003737   0.000917   0.000508  -0.005898  -0.082402   0.005905
     6  C   -0.010005   0.002998   0.000917  -0.003822   0.005905   0.106975
     7  H   -0.000349  -0.000110   0.002542   0.000606   0.000007  -0.000069
     8  H   -0.000079   0.000005   0.000070   0.000066   0.000070   0.000005
     9  H   -0.000349  -0.000069   0.000007   0.000606   0.002542  -0.000110
    10  C   -0.000202  -0.000019   0.000001   0.000016   0.000338  -0.000225
    11  C    0.004833  -0.000939   0.000001   0.000031  -0.000195  -0.006477
    12  C    0.000045   0.000000   0.000000  -0.000000  -0.000010   0.000027
    13  C    0.000018   0.000000  -0.000000   0.000006  -0.000219  -0.000349
    14  C    0.000001   0.000000  -0.000000   0.000000  -0.000001  -0.000018
    15  C   -0.000000   0.000000   0.000000  -0.000000   0.000002   0.000009
    16  H   -0.000001  -0.000000  -0.000000   0.000001   0.000046   0.000047
    17  C   -0.000000  -0.000000   0.000000  -0.000000   0.000000   0.000001
    18  H    0.000000  -0.000000  -0.000000   0.000000   0.000000   0.000000
    19  H    0.000000   0.000000  -0.000000  -0.000000   0.000000   0.000000
    20  H    0.000000   0.000000  -0.000000  -0.000000  -0.000000  -0.000000
    21  C   -0.000202  -0.000225   0.000338   0.000016   0.000001  -0.000019
    22  C    0.004833  -0.006478  -0.000195   0.000031   0.000001  -0.000939
    23  C    0.000045   0.000027  -0.000010  -0.000000   0.000000   0.000000
    24  C    0.000018  -0.000349  -0.000219   0.000006  -0.000000   0.000000
    25  C    0.000001  -0.000018  -0.000001   0.000000  -0.000000   0.000000
    26  C   -0.000000   0.000009   0.000002  -0.000000   0.000000   0.000000
    27  H   -0.000001   0.000047   0.000046   0.000001  -0.000000  -0.000000
    28  C   -0.000000   0.000001   0.000000  -0.000000   0.000000  -0.000000
    29  H    0.000000   0.000000   0.000000   0.000000  -0.000000  -0.000000
    30  H    0.000000   0.000000   0.000000  -0.000000  -0.000000   0.000000
    31  H    0.000000  -0.000000  -0.000000  -0.000000  -0.000000   0.000000
    32  N    0.000706   0.011427   0.002908   0.000020   0.000023  -0.000072
    33  N   -0.000576   0.000406  -0.000009  -0.000000  -0.000000   0.000003
    34  N    0.000706  -0.000072   0.000023   0.000020   0.002908   0.011426
    35  N   -0.000576   0.000003  -0.000000  -0.000000  -0.000009   0.000406
    36  C   -0.000012   0.000000  -0.000000  -0.000000  -0.000000  -0.000005
    37  H    0.000001  -0.000000  -0.000000   0.000000  -0.000000  -0.000001
    38  H    0.000001  -0.000000  -0.000000   0.000000  -0.000000  -0.000001
    39  H    0.000011  -0.000000   0.000000   0.000000   0.000000  -0.000000
    40  C   -0.000012  -0.000005  -0.000000  -0.000000  -0.000000   0.000000
    41  H    0.000001  -0.000001  -0.000000   0.000000  -0.000000  -0.000000
    42  H    0.000001  -0.000001  -0.000000   0.000000  -0.000000  -0.000000
    43  H    0.000011  -0.000000   0.000000   0.000000   0.000000  -0.000000
    44  Co   0.027574  -0.011447  -0.001638   0.001494  -0.001638  -0.011447
               7          8          9         10         11         12
     1  C   -0.000349  -0.000079  -0.000349  -0.000202   0.004833   0.000045
     2  C   -0.000110   0.000005  -0.000069  -0.000019  -0.000939   0.000000
     3  C    0.002542   0.000070   0.000007   0.000001   0.000001   0.000000
     4  C    0.000606   0.000066   0.000606   0.000016   0.000031  -0.000000
     5  C    0.000007   0.000070   0.002542   0.000338  -0.000195  -0.000010
     6  C   -0.000069   0.000005  -0.000110  -0.000225  -0.006477   0.000027
     7  H   -0.002443  -0.000042  -0.000011  -0.000000   0.000000   0.000000
     8  H   -0.000042  -0.006313  -0.000042  -0.000000   0.000000   0.000000
     9  H   -0.000011  -0.000042  -0.002443  -0.000075   0.000014   0.000001
    10  C   -0.000000  -0.000000  -0.000075  -0.004287   0.001545  -0.001887
    11  C    0.000000   0.000000   0.000014   0.001545   0.207090  -0.001602
    12  C    0.000000   0.000000   0.000001  -0.001887  -0.001602  -0.027164
    13  C    0.000000   0.000000   0.000082   0.004173   0.000279   0.000602
    14  C    0.000000   0.000000   0.000000   0.000811   0.000526   0.000122
    15  C    0.000000   0.000000   0.000004  -0.000767  -0.000026   0.000189
    16  H   -0.000000  -0.000000  -0.000109  -0.000152  -0.000001  -0.000006
    17  C   -0.000000  -0.000000  -0.000000   0.000125  -0.000014  -0.000240
    18  H   -0.000000  -0.000000  -0.000000  -0.000009  -0.000002  -0.000058
    19  H   -0.000000  -0.000000  -0.000000   0.000003  -0.000000  -0.000007
    20  H    0.000000   0.000000   0.000000  -0.000006   0.000000   0.000013
    21  C   -0.000075  -0.000000  -0.000000  -0.000000   0.000001  -0.000000
    22  C    0.000014   0.000000   0.000000   0.000001   0.002009   0.000000
    23  C    0.000001   0.000000   0.000000  -0.000000   0.000000   0.000000
    24  C    0.000082   0.000000   0.000000   0.000000   0.000000   0.000000
    25  C    0.000000   0.000000   0.000000   0.000000   0.000000   0.000000
    26  C    0.000004   0.000000   0.000000  -0.000000  -0.000000  -0.000000
    27  H   -0.000109  -0.000000  -0.000000  -0.000000   0.000000  -0.000000
    28  C   -0.000000  -0.000000  -0.000000  -0.000000  -0.000000   0.000000
    29  H   -0.000000  -0.000000  -0.000000   0.000000   0.000000  -0.000000
    30  H   -0.000000  -0.000000  -0.000000  -0.000000  -0.000000   0.000000
    31  H    0.000000   0.000000   0.000000   0.000000  -0.000000  -0.000000
    32  N   -0.000317  -0.000001  -0.000001  -0.000000  -0.000044  -0.000000
    33  N    0.000002   0.000000   0.000000   0.000000  -0.000005   0.000000
    34  N   -0.000001  -0.000001  -0.000317  -0.000817  -0.030121   0.001421
    35  N    0.000000   0.000000   0.000002  -0.000796  -0.043409   0.006663
    36  C    0.000000   0.000000   0.000000  -0.000035   0.000587   0.000337
    37  H   -0.000000  -0.000000  -0.000000   0.000004   0.000451  -0.000130
    38  H   -0.000000  -0.000000  -0.000000   0.000004   0.000452  -0.000130
    39  H   -0.000000  -0.000000  -0.000000   0.000000  -0.000548  -0.000047
    40  C    0.000000   0.000000   0.000000   0.000000  -0.000001  -0.000000
    41  H   -0.000000  -0.000000  -0.000000   0.000000   0.000000  -0.000000
    42  H   -0.000000  -0.000000  -0.000000   0.000000   0.000000  -0.000000
    43  H   -0.000000  -0.000000  -0.000000  -0.000000   0.000001   0.000000
    44  Co   0.000264   0.000025   0.000264   0.001250   0.059722   0.000174
              13         14         15         16         17         18
     1  C    0.000018   0.000001  -0.000000  -0.000001  -0.000000   0.000000
     2  C    0.000000   0.000000   0.000000  -0.000000  -0.000000  -0.000000
     3  C   -0.000000  -0.000000   0.000000  -0.000000   0.000000  -0.000000
     4  C    0.000006   0.000000  -0.000000   0.000001  -0.000000   0.000000
     5  C   -0.000219  -0.000001   0.000002   0.000046   0.000000   0.000000
     6  C   -0.000349  -0.000018   0.000009   0.000047   0.000001   0.000000
     7  H    0.000000   0.000000   0.000000  -0.000000  -0.000000  -0.000000
     8  H    0.000000   0.000000   0.000000  -0.000000  -0.000000  -0.000000
     9  H    0.000082   0.000000   0.000004  -0.000109  -0.000000  -0.000000
    10  C    0.004173   0.000811  -0.000767  -0.000152   0.000125  -0.000009
    11  C    0.000279   0.000526  -0.000026  -0.000001  -0.000014  -0.000002
    12  C    0.000602   0.000122   0.000189  -0.000006  -0.000240  -0.000058
    13  C    0.019822   0.000962  -0.009150   0.000193  -0.001182  -0.000005
    14  C    0.000962   0.050049  -0.002061  -0.000002  -0.006770   0.000053
[...]
 
              Baa    -0.0055    -0.741    -0.265    -0.247 -0.0001 -0.0001  1.0000
    40 C(13)  Bbb    -0.0032    -0.436    -0.155    -0.145 -0.6523  0.7579  0.0000
              Bcc     0.0088     1.177     0.420     0.393  0.7579  0.6523  0.0001
 
              Baa    -0.0039    -2.075    -0.740    -0.692 -0.0354  0.3488  0.9365
    41 H(1)   Bbb    -0.0025    -1.315    -0.469    -0.438 -0.6731  0.6844 -0.2803
              Bcc     0.0064     3.389     1.209     1.131  0.7387  0.6403 -0.2105
 
              Baa    -0.0039    -2.074    -0.740    -0.692  0.0353 -0.3486  0.9366
    42 H(1)   Bbb    -0.0025    -1.314    -0.469    -0.438 -0.6731  0.6845  0.2801
              Bcc     0.0064     3.389     1.209     1.130  0.7387  0.6403  0.2105
 
              Baa    -0.0072    -3.852    -1.374    -1.285 -0.0002 -0.0001  1.0000
    43 H(1)   Bbb    -0.0059    -3.131    -1.117    -1.044  0.7755 -0.6314  0.0001
              Bcc     0.0131     6.982     2.491     2.329  0.6314  0.7755  0.0002
 
              Baa    -1.3809  -174.376   -62.222   -58.166  1.0000 -0.0000  0.0000
    44 Co(59) Bbb     0.2559    32.317    11.532    10.780  0.0000  1.0000  0.0000
              Bcc     1.1250   142.059    50.690    47.386 -0.0000 -0.0000  1.0000
 

 ---------------------------------------------------------------------------------

   1 Symmetry operations used in ECPInt.
 ECPInt:  NShTT=   11781 NPrTT=   71406 LenC2=    9542 LenP2D=   32123.
 LDataN:  DoStor=T MaxTD1= 7 Len=  274
 Calling FoFJK, ICntrl=      2127 FMM=F ISym2X=0 I1Cent= 0 IOpClX= 1 NMat=1 NMatS=1 NMatT=0.
 -------------------------------------------------------------------
 Center     Atomic                   Forces (Hartrees/Bohr)
 Number     Number              X              Y              Z
 -------------------------------------------------------------------
      1        6          -0.000000705   -0.018281747   -0.000017306
      2        6           0.039657742    0.013681991    0.000006988
      3        6           0.006501036    0.005805515    0.000001608
      4        6           0.000001643   -0.001765259   -0.000001401
      5        6          -0.006502982    0.005807353    0.000000738
      6        6          -0.039654403    0.013678320    0.000007398
      7        1          -0.000471595    0.002015034   -0.000000952
      8        1          -0.000000102    0.000156574    0.000000268
      9        1           0.000471797    0.002015013   -0.000000957
     10        6          -0.006177002   -0.004075218    0.000001791
     11        6           0.009269257    0.002861525    0.000002674
     12        6           0.001844019    0.001247729   -0.000000867
     13        6           0.004933874    0.001914487   -0.000000760
     14        6           0.002030705    0.003835764    0.000000219
     15        6          -0.005941567    0.004907735    0.000000844
     16        1           0.000624158   -0.000183470   -0.000000171
     17        6          -0.000656890   -0.007412771    0.000000232
     18        1           0.000431338   -0.000140787    0.000000099
     19        1           0.000695835    0.000005089   -0.000000203
     20        1           0.001326745   -0.000129151   -0.000000235
     21        6           0.006178679   -0.004073715   -0.000000644
     22        6          -0.009269162    0.002862787    0.000003171
     23        6          -0.001848240    0.001248961    0.000000273
     24        6          -0.004936387    0.001912516    0.000000116
     25        6          -0.002028772    0.003836057    0.000000112
     26        6           0.005943662    0.004908977    0.000000244
     27        1          -0.000623701   -0.000182579   -0.000000177
     28        6           0.000656284   -0.007413522    0.000000040
     29        1          -0.000431438   -0.000140984   -0.000000030
     30        1          -0.000696199    0.000005291   -0.000000141
     31        1          -0.001326463   -0.000129134   -0.000000047
     32        7          -0.018822895   -0.029366507    0.000000639
     33        7           0.011145373    0.009305321   -0.000001591
     34        7           0.018819266   -0.029361073   -0.000002733
     35        7          -0.011143256    0.009306655    0.000000394
     36        6           0.000053077   -0.004548707    0.000000247
     37        1           0.000271256    0.000536871    0.000654349
     38        1           0.000270363    0.000537932   -0.000655990
     39        1           0.000330650    0.001059303    0.000001080
     40        6          -0.000052775   -0.004548166    0.000000134
     41        1          -0.000270668    0.000537600   -0.000655554
     42        1          -0.000271340    0.000536992    0.000654348
     43        1          -0.000330687    0.001059430    0.000001279
     44       27           0.000000469    0.016165971    0.000000474
 -------------------------------------------------------------------
 Cartesian Forces:  Max     0.039657742 RMS     0.007695453

 GradGradGradGradGradGradGradGradGradGradGradGradGradGradGradGradGradGrad
 Berny optimization.
 Search for a local minimum.
 Step number   1 out of a maximum of    2
 All quantities printed in internal units (Hartrees-Bohrs-Radians)
 Second derivative matrix not updated -- first step.
 ITU=  0
     Eigenvalues ---    0.00056   0.00063   0.00199   0.00246   0.00248
     Eigenvalues ---    0.00389   0.00453   0.00619   0.00635   0.00648
     Eigenvalues ---    0.00672   0.00844   0.00846   0.01334   0.01599
     Eigenvalues ---    0.01837   0.02001   0.02011   0.02552   0.02558
     Eigenvalues ---    0.03072   0.03227   0.04076   0.04179   0.04452
     Eigenvalues ---    0.04516   0.04712   0.05397   0.05530   0.06409
     Eigenvalues ---    0.06427   0.06912   0.06947   0.07032   0.07069
     Eigenvalues ---    0.07072   0.07271   0.07691   0.07754   0.09654
     Eigenvalues ---    0.10195   0.10440   0.10456   0.11801   0.11942
     Eigenvalues ---    0.11996   0.12332   0.12525   0.12821   0.13384
     Eigenvalues ---    0.13387   0.13506   0.13669   0.14880   0.15651
     Eigenvalues ---    0.15892   0.16131   0.19591   0.20320   0.20732
     Eigenvalues ---    0.21388   0.22322   0.24509   0.25830   0.28920
     Eigenvalues ---    0.29741   0.30715   0.30898   0.30941   0.31877
     Eigenvalues ---    0.32811   0.34838   0.36824   0.38362   0.38504
     Eigenvalues ---    0.38622   0.41340   0.42686   0.46074   0.48082
     Eigenvalues ---    0.48756   0.48874   0.49376   0.51990   0.53604
     Eigenvalues ---    0.54276   0.54316   0.56523   0.64315   0.68971
     Eigenvalues ---    0.71607   0.73549   0.74498   0.86383   0.86610
     Eigenvalues ---    0.90786   0.91912   0.94350   0.94564   0.94615
     Eigenvalues ---    0.95626   0.97422   1.02261   1.05343   1.13140
     Eigenvalues ---    1.16013   1.17023   1.18612   1.21046   1.26050
     Eigenvalues ---    1.31678   1.37811   1.38083   1.45140   1.48384
     Eigenvalues ---    1.49641   1.51663   1.53472   1.61527   1.64802
     Eigenvalues ---    1.66670   1.67645   1.76840   1.79147   1.83947
     Eigenvalues ---    1.85412
 Angle between quadratic step and forces=  57.45 degrees.
 Linear search not attempted -- first point.
 B after Tr=     0.000000   -0.000954   -0.000002
         Rot=    1.000000   -0.000000   -0.000000   -0.000000 Ang=  -0.00 deg.
 Variable       Old X    -DE/DX   Delta X   Delta X   Delta X     New X
                                 (Linear)    (Quad)   (Total)
    X1        0.00000  -0.00000   0.00000   0.00000   0.00000   0.00000
    Y1        1.35155  -0.01828   0.00000  -0.03885  -0.03980   1.31175
    Z1        0.00024  -0.00002   0.00000  -0.00008  -0.00008   0.00015
    X2       -2.36825   0.03966   0.00000   0.05436   0.05436  -2.31389
    Y2        2.56015   0.01368   0.00000  -0.00037  -0.00133   2.55883
    Z2        0.00007   0.00001   0.00000   0.00001   0.00000   0.00007
    X3       -2.35730   0.00650   0.00000   0.03314   0.03314  -2.32415
    Y3        5.18530   0.00581   0.00000   0.01446   0.01351   5.19881
    Z3       -0.00001   0.00000   0.00000   0.00003   0.00003   0.00001
    X4       -0.00000   0.00000   0.00000  -0.00000  -0.00000  -0.00000
    Y4        6.42386  -0.00177   0.00000   0.03258   0.03163   6.45549
    Z4        0.00003  -0.00000   0.00000   0.00001   0.00001   0.00003
    X5        2.35730  -0.00650   0.00000  -0.03315  -0.03315   2.32416
    Y5        5.18530   0.00581   0.00000   0.01447   0.01351   5.19881
    Z5        0.00008   0.00000   0.00000  -0.00000  -0.00000   0.00008
    X6        2.36825  -0.03965   0.00000  -0.05436  -0.05436   2.31389
    Y6        2.56016   0.01368   0.00000  -0.00037  -0.00133   2.55883
    Z6        0.00014   0.00001   0.00000  -0.00002  -0.00002   0.00012
    X7       -4.08040  -0.00047   0.00000   0.02884   0.02884  -4.05157
    Y7        6.28740   0.00202   0.00000   0.01544   0.01448   6.30188
    Z7       -0.00008  -0.00000   0.00000   0.00004   0.00004  -0.00005
    X8        0.00000  -0.00000   0.00000  -0.00000  -0.00000  -0.00000
    Y8        8.47688   0.00016   0.00000   0.03303   0.03207   8.50895
    Z8       -0.00002   0.00000   0.00000   0.00001   0.00001  -0.00001
    X9        4.08040   0.00047   0.00000  -0.02884  -0.02884   4.05157
    Y9        6.28740   0.00202   0.00000   0.01544   0.01449   6.30189
    Z9        0.00010  -0.00000   0.00000  -0.00001  -0.00002   0.00008
   X10        6.92975  -0.00618   0.00000  -0.02147  -0.02147   6.90828
   Y10        1.09860  -0.00408   0.00000  -0.01183  -0.01279   1.08581
   Z10       -0.00004   0.00000   0.00000  -0.00001  -0.00001  -0.00005
   X11        3.56709   0.00927   0.00000  -0.00659  -0.00659   3.56050
   Y11       -1.69842   0.00286   0.00000  -0.00161  -0.00257  -1.70099
   Z11        0.00015   0.00000   0.00000  -0.00001  -0.00001   0.00014
   X12        7.87266   0.00184   0.00000  -0.01389  -0.01389   7.85877
   Y12       -1.39739   0.00125   0.00000  -0.00260  -0.00355  -1.40094
   Z12       -0.00017  -0.00000   0.00000  -0.00001  -0.00001  -0.00018
   X13        8.55611   0.00493   0.00000  -0.01891  -0.01891   8.53720
   Y13        3.14593   0.00191   0.00000  -0.00432  -0.00527   3.14065
   Z13       -0.00010  -0.00000   0.00000  -0.00001  -0.00001  -0.00011
   X14       10.44618   0.00203   0.00000  -0.01190  -0.01190  10.43427
   Y14       -1.89391   0.00384   0.00000  -0.00009  -0.00104  -1.89495
   Z14       -0.00038   0.00000   0.00000   0.00002   0.00002  -0.00036
   X15       11.15895  -0.00594   0.00000  -0.02493  -0.02493  11.13402
   Y15        2.64574   0.00491   0.00000  -0.00064  -0.00159   2.64415
   Z15       -0.00032   0.00000   0.00000   0.00001   0.00001  -0.00031
   X16        7.86193   0.00062   0.00000  -0.01396  -0.01396   7.84797
   Y16        5.07198  -0.00018   0.00000  -0.00368  -0.00464   5.06734
   Z16        0.00002  -0.00000   0.00000  -0.00003  -0.00003  -0.00001
   X17       12.08145  -0.00066   0.00000  -0.01554  -0.01554  12.06591
   Y17        0.18983  -0.00741   0.00000  -0.00766  -0.00861   0.18122
   Z17       -0.00046   0.00000   0.00000   0.00003   0.00003  -0.00043
   X18       11.16215   0.00043   0.00000  -0.00687  -0.00687  11.15528
   Y18       -3.81532  -0.00014   0.00000   0.00094  -0.00002  -3.81534
   Z18       -0.00047   0.00000   0.00000   0.00004   0.00003  -0.00044
   X19       12.46369   0.00070   0.00000  -0.02136  -0.02136  12.44233
   Y19        4.22789   0.00001   0.00000  -0.00194  -0.00289   4.22499
   Z19       -0.00037  -0.00000   0.00000   0.00001   0.00001  -0.00036
   X20       14.10447   0.00133   0.00000  -0.01139  -0.01139  14.09308
   Y20       -0.13362  -0.00013   0.00000  -0.00544  -0.00640  -0.14002
   Z20       -0.00061  -0.00000   0.00000   0.00005   0.00004  -0.00057
   X21       -6.92975   0.00618   0.00000   0.02148   0.02148  -6.90827
   Y21        1.09859  -0.00407   0.00000  -0.01183  -0.01279   1.08580
   Z21       -0.00006  -0.00000   0.00000   0.00001   0.00001  -0.00005
   X22       -3.56708  -0.00927   0.00000   0.00660   0.00660  -3.56048
   Y22       -1.69843   0.00286   0.00000  -0.00161  -0.00257  -1.70099
   Z22        0.00007   0.00000   0.00000   0.00001   0.00001   0.00008
   X23       -7.87264  -0.00185   0.00000   0.01389   0.01389  -7.85876
   Y23       -1.39740   0.00125   0.00000  -0.00260  -0.00355  -1.40095
   Z23       -0.00012   0.00000   0.00000   0.00000   0.00000  -0.00011
   X24       -8.55611  -0.00494   0.00000   0.01891   0.01891  -8.53719
   Y24        3.14592   0.00191   0.00000  -0.00432  -0.00527   3.14064
   Z24       -0.00010   0.00000   0.00000   0.00000   0.00000  -0.00009
   X25      -10.44617  -0.00203   0.00000   0.01190   0.01190 -10.43426
   Y25       -1.89393   0.00384   0.00000  -0.00008  -0.00104  -1.89497
   Z25       -0.00019   0.00000   0.00000   0.00001   0.00000  -0.00019
   X26      -11.15894   0.00594   0.00000   0.02493   0.02493 -11.13402
   Y26        2.64572   0.00491   0.00000  -0.00063  -0.00159   2.64413
   Z26       -0.00018   0.00000   0.00000   0.00000   0.00000  -0.00018
   X27       -7.86193  -0.00062   0.00000   0.01396   0.01396  -7.84797
   Y27        5.07197  -0.00018   0.00000  -0.00368  -0.00464   5.06733
   Z27       -0.00004  -0.00000   0.00000  -0.00000  -0.00000  -0.00004
   X28      -12.08144   0.00066   0.00000   0.01554   0.01554 -12.06590
   Y28        0.18981  -0.00741   0.00000  -0.00766  -0.00861   0.18120
   Z28       -0.00023   0.00000   0.00000   0.00000   0.00000  -0.00023
   X29      -11.16213  -0.00043   0.00000   0.00687   0.00687 -11.15526
   Y29       -3.81533  -0.00014   0.00000   0.00094  -0.00002  -3.81535
   Z29       -0.00021  -0.00000   0.00000   0.00000   0.00000  -0.00020
   X30      -12.46369  -0.00070   0.00000   0.02136   0.02136 -12.44233
   Y30        4.22787   0.00001   0.00000  -0.00194  -0.00289   4.22498
   Z30       -0.00020  -0.00000   0.00000  -0.00001  -0.00001  -0.00021
   X31      -14.10446  -0.00133   0.00000   0.01139   0.01139 -14.09307
   Y31       -0.13364  -0.00013   0.00000  -0.00544  -0.00640  -0.14004
   Z31       -0.00029  -0.00000   0.00000   0.00000   0.00000  -0.00028
   X32       -4.31456  -0.01882   0.00000   0.01344   0.01344  -4.30112
   Y32        0.87152  -0.02937   0.00000  -0.02687  -0.02782   0.84369
   Z32        0.00002   0.00000   0.00000   0.00001   0.00001   0.00003
   X33       -5.82570   0.01115   0.00000   0.02429   0.02429  -5.80141
   Y33       -3.01248   0.00931   0.00000   0.00704   0.00608  -3.00640
   Z33       -0.00006  -0.00000   0.00000   0.00000  -0.00000  -0.00006
   X34        4.31457   0.01882   0.00000  -0.01345  -0.01345   4.30113
   Y34        0.87151  -0.02936   0.00000  -0.02686  -0.02782   0.84370
   Z34        0.00016  -0.00000   0.00000  -0.00002  -0.00003   0.00014
   X35        5.82571  -0.01114   0.00000  -0.02429  -0.02429   5.80143
   Y35       -3.01248   0.00931   0.00000   0.00704   0.00608  -3.00639
   Z35       -0.00008   0.00000   0.00000  -0.00001  -0.00002  -0.00009
   X36        6.00791   0.00005   0.00000  -0.02248  -0.02248   5.98544
   Y36       -5.71134  -0.00455   0.00000   0.00109   0.00013  -5.71121
   Z36        0.00001   0.00000   0.00000  -0.00001  -0.00002  -0.00001
   X37        7.00061   0.00027   0.00000  -0.01737  -0.01737   6.98324
   Y37       -6.39216   0.00054   0.00000   0.00715   0.00620  -6.38596
   Z37       -1.68840   0.00065   0.00000   0.00264   0.00263  -1.68577
   X38        6.99981   0.00027   0.00000  -0.01731  -0.01731   6.98250
   Y38       -6.39217   0.00054   0.00000   0.00717   0.00622  -6.38595
   Z38        1.68890  -0.00066   0.00000  -0.00269  -0.00270   1.68620
   X39        4.10278   0.00033   0.00000  -0.02391  -0.02391   4.07887
   Y39       -6.50853   0.00106   0.00000   0.00988   0.00893  -6.49960
   Z39       -0.00047   0.00000   0.00000   0.00004   0.00004  -0.00043
   X40       -6.00790  -0.00005   0.00000   0.02248   0.02248  -5.98542
   Y40       -5.71135  -0.00455   0.00000   0.00109   0.00013  -5.71122
   Z40        0.00008   0.00000   0.00000   0.00000  -0.00000   0.00008
   X41       -6.99968  -0.00027   0.00000   0.01730   0.01730  -6.98238
   Y41       -6.39215   0.00054   0.00000   0.00717   0.00622  -6.38593
   Z41        1.68905  -0.00066   0.00000  -0.00268  -0.00269   1.68636
   X42       -7.00071  -0.00027   0.00000   0.01738   0.01738  -6.98333
   Y42       -6.39219   0.00054   0.00000   0.00715   0.00620  -6.38600
   Z42       -1.68825   0.00065   0.00000   0.00265   0.00264  -1.68561
   X43       -4.10276  -0.00033   0.00000   0.02391   0.02391  -4.07885
   Y43       -6.50853   0.00106   0.00000   0.00988   0.00893  -6.49960
   Z43       -0.00052   0.00000   0.00000   0.00007   0.00006  -0.00046
   X44        0.00000   0.00000   0.00000   0.00000   0.00000   0.00001
   Y44       -2.23787   0.01617   0.00000   0.02295   0.02200  -2.21587
   Z44        0.00018   0.00000   0.00000  -0.00001  -0.00001   0.00017
         Item               Value     Threshold  Converged?
 Maximum Force            0.039658     0.000450     NO 
 RMS     Force            0.007695     0.000300     NO 
 Maximum Displacement     0.054362     0.001800     NO 
 RMS     Displacement     0.014567     0.001200     NO 
 Predicted change in Energy=-3.984043D-03
 GradGradGradGradGradGradGradGradGradGradGradGradGradGradGradGradGradGrad

 Unable to Open any file for archive entry.
 1\1\GINC-X11P1N5\Force\UPBE1PBE\GenECP\C22H17Co1N4(3)\MAYUMIAO\17-Jul-
 2024\0\\# pbe1pbe em=gd3bj genecp g09default scf=(xqc,maxcycle=64) for
 ce guess=read nosymm\\Title Card\\0,3\C,0.00000169,0.71520935,0.000125
 39\C,-1.25322512,1.35477544,0.00003458\C,-1.2474268,2.74394439,-0.0000
 0772\C,-0.0000001,3.39935951,0.00001442\C,1.24743003,2.74394395,0.0000
 4437\C,1.25322622,1.35477735,0.00007521\H,-2.15925524,3.32714853,-0.00
 004475\H,0.00000092,4.48576995,-0.00001124\H,2.15925703,3.32714968,0.0
 000503\C,3.66706732,0.58135304,-0.0000214\C,1.88762415,-0.89876723,0.0
 0008126\C,4.16603141,-0.73946722,-0.00009206\C,4.52769913,1.66475329,-
 0.00005285\C,5.52787842,-1.00221502,-0.00020115\C,5.90506003,1.4000629
 9,-0.00016954\H,4.16035511,2.68397426,0.00001269\C,6.39322761,0.100452
 33,-0.00024242\H,5.90675301,-2.01898019,-0.00024872\H,6.59550057,2.237
 30121,-0.00019523\H,7.46376304,-0.07070949,-0.00032419\C,-3.66706466,0
 .58134827,-0.00003221\C,-1.88761805,-0.8987688,0.00003856\C,-4.1660235
 1,-0.73947376,-0.00006202\C,-4.52769628,1.66474813,-0.00005169\C,-5.52
 787264,-1.00222274,-0.00010201\C,-5.90505881,1.40005414,-0.00009746\H,
 -4.16035518,2.68396857,-0.00002178\C,-6.39322304,0.10044357,-0.0001220
 8\H,-5.90674566,-2.01898815,-0.00010882\H,-6.59549951,2.23729153,-0.00
 010794\H,-7.46375862,-0.07072023,-0.00015135\N,-2.28316835,0.46118654,
 0.00001088\N,-3.08282777,-1.59413618,-0.00003223\N,2.2831732,0.4611843
 4,0.00008709\N,3.08283371,-1.59413319,-0.00004019\C,3.17925052,-3.0223
 1177,0.00000487\H,3.70456367,-3.38258315,-0.89346474\H,3.70414033,-3.3
 8258951,0.89372849\H,2.17109626,-3.44416462,-0.00024919\C,-3.17924113,
 -3.0223156,0.00004304\H,-3.70406877,-3.38257979,0.8938077\H,-3.7046138
 1,-3.38260219,-0.89338519\H,-2.17108598,-3.44416657,-0.00027637\Co,0.0
 0000164,-1.18422787,0.00009767\\Version=ES64L-G16RevC.01\HF=-1212.1325
 983\S2=2.171404\S2-1=0.\S2A=2.003997\RMSD=1.636e-09\RMSF=7.695e-03\Dip
 ole=0.0000345,-1.3800651,-0.0002771\Quadrupole=8.3687279,11.0345998,-1
 9.4033277,-0.000001,-0.0002985,0.0012409\PG=C01 [X(C22H17Co1N4)]\\@
 The archive entry for this job was punched.


 NO MATTER HOW THIN YOU SLICE IT, IT'S STILL BALONEY

                                   -- ALFRED E. SMITH
 Job cpu time:       0 days  0 hours 56 minutes  3.0 seconds.
 Elapsed time:       0 days  0 hours  1 minutes  0.9 seconds.
 File lengths (MBytes):  RWF=    184 Int=      0 D2E=      0 Chk=     72 Scr=      1
 Normal termination of Gaussian 16 at Wed Jul 17 20:43:26 2024.
