 Entering Gaussian System, Link 0=g16
 Input=JOBS/8_B.gjf
 Output=JOBS/8_B.log
 Initial command:
 /data/app/gaussian/C01-avx2//g16/l1.exe "/tmp/Gau-2046288.inp" -scrdir="/tmp/"
 Entering Link 1 = /data/app/gaussian/C01-avx2//g16/l1.exe PID=   2046289.
  
 Copyright (c) 1988-2019, Gaussian, Inc.  All Rights Reserved.
  
 This is part of the Gaussian(R) 16 program.  It is based on
 the Gaussian(R) 09 system (copyright 2009, Gaussian, Inc.),
 the Gaussian(R) 03 system (copyright 2003, Gaussian, Inc.),
 the Gaussian(R) 98 system (copyright 1998, Gaussian, Inc.),
 the Gaussian(R) 94 system (copyright 1995, Gaussian, Inc.),
 the Gaussian 92(TM) system (copyright 1992, Gaussian, Inc.),
 the Gaussian 90(TM) system (copyright 1990, Gaussian, Inc.),
 the Gaussian 88(TM) system (copyright 1988, Gaussian, Inc.),
 the Gaussian 86(TM) system (copyright 1986, Carnegie Mellon
 University), and the Gaussian 82(TM) system (copyright 1983,
 Carnegie Mellon University). Gaussian is a federally registered
 trademark of Gaussian, Inc.
  
 This software contains proprietary and confidential information,
 including trade secrets, belonging to Gaussian, Inc.
  
 This software is provided under written license and may be
 used, copied, transmitted, or stored only in accord with that
 written license.
  
 The following legend is applicable only to US Government
 contracts under FAR:
  
                    RESTRICTED RIGHTS LEGEND
  
 Use, reproduction and disclosure by the US Government is
 subject to restrictions as set forth in subparagraphs (a)
 and (c) of the Commercial Computer Software - Restricted
 Rights clause in FAR 52.227-19.
  
 Gaussian, Inc.
 340 Quinnipiac St., Bldg. 40, Wallingford CT 06492
  
  
 ---------------------------------------------------------------
 Warning -- This program may not be used in any manner that
 competes with the business of Gaussian, Inc. or will provide
 assistance to any competitor of Gaussian, Inc.  The licensee
 of this program is prohibited from giving any competitor of
 Gaussian, Inc. access to this program.  By using this program,
 the user acknowledges that Gaussian, Inc. is engaged in the
 business of creating and licensing software in the field of
 computational chemistry and represents and warrants to the
 licensee that it is not a competitor of Gaussian, Inc. and that
 it will not use this program in any manner prohibited above.
 ---------------------------------------------------------------
  

 Cite this work as:
 Gaussian 16, Revision C.01,
 M. J. Frisch, G. W. Trucks, H. B. Schlegel, G. E. Scuseria, 
 M. A. Robb, J. R. Cheeseman, G. Scalmani, V. Barone, 
 G. A. Petersson, H. Nakatsuji, X. Li, M. Caricato, A. V. Marenich, 
 J. Bloino, B. G. Janesko, R. Gomperts, B. Mennucci, H. P. Hratchian, 
 J. V. Ortiz, A. F. Izmaylov, J. L. Sonnenberg, D. Williams-Young, 
 F. Ding, F. Lipparini, F. Egidi, J. Goings, B. Peng, A. Petrone, 
 T. Henderson, D. Ranasinghe, V. G. Zakrzewski, J. Gao, N. Rega, 
 G. Zheng, W. Liang, M. Hada, M. Ehara, K. Toyota, R. Fukuda, 
 J. Hasegawa, M. Ishida, T. Nakajima, Y. Honda, O. Kitao, H. Nakai, 
 T. Vreven, K. Throssell, J. A. Montgomery, Jr., J. E. Peralta, 
 F. Ogliaro, M. J. Bearpark, J. J. Heyd, E. N. Brothers, K. N. Kudin, 
 V. N. Staroverov, T. A. Keith, R. Kobayashi, J. Normand, 
 K. Raghavachari, A. P. Rendell, J. C. Burant, S. S. Iyengar, 
 J. Tomasi, M. Cossi, J. M. Millam, M. Klene, C. Adamo, R. Cammi, 
 J. W. Ochterski, R. L. Martin, K. Morokuma, O. Farkas, 
 J. B. Foresman, and D. J. Fox, Gaussian, Inc., Wallingford CT, 2019.
 
 ******************************************
 Gaussian 16:  ES64L-G16RevC.01  3-Jul-2019
                17-Jul-2024 
 ******************************************
 %chk=b.chk
 %nprocshared=56
 Will use up to   56 processors via shared memory.
 %mem=96gb
 ----------------------------------------------------------------------
 # pbe1pbe em=gd3bj genecp g09default scf=(xqc,maxcycle=64) force guess
 =read nosymm
 ----------------------------------------------------------------------
 1/10=7,30=1,38=1,158=3,167=1/1,3;
 2/12=2,15=1,17=6,18=5,40=1/2;
 3/5=7,11=2,16=1,17=8,25=1,27=10,30=1,71=1,74=-13,75=-4,116=-2,124=41,158=3/1,2,3;
 4/5=1,60=-1/1;
 5/5=2,7=64,8=3,13=1,38=6,87=10/2,8;
 6/7=2,8=2,9=2,10=2,28=1,87=10/1;
 7/29=1,30=1,87=10/1,2,3,16;
 1/10=7,30=1,158=3,167=1/3;
 99//99;
 Using 2006 physical constants.
 ----------
 Title Card
 ----------
 Symbolic Z-matrix:
 Charge =  0 Multiplicity = 3
 6                     0.        0.82561   0.00011 
 6                    -1.33079   1.34909   0.00005 
 6                    -1.26673   2.73676  -0.00001 
 6                     0.        3.36463   0.00001 
 6                     1.26673   2.73676   0.00004 
 6                     1.33079   1.34909   0.00009 
 1                    -2.16863   3.32979  -0.00005 
 1                     0.        4.458    -0.00001 
 1                     2.16863   3.32979   0.00005 
 6                     3.68807   0.59294  -0.00002 
 6                     1.8968   -0.90631   0.0001 
 6                     4.16616  -0.74414  -0.00008 
 6                     4.5339    1.66524  -0.00006 
 6                     5.52672  -1.00219  -0.00019 
 6                     5.92534   1.4001   -0.00017 
 1                     4.16335   2.68329   0.00001 
 6                     6.39838   0.10917  -0.00024 
 1                     5.90632  -2.01989  -0.00025 
 1                     6.60564   2.24123  -0.00019 
 1                     7.46732  -0.06996  -0.00033 
 6                    -3.68806   0.59293  -0.00004 
 6                    -1.89679  -0.90632   0.00009 
 6                    -4.16615  -0.74415  -0.00006 
 6                    -4.53389   1.66523  -0.00006 
 6                    -5.52671  -1.0022   -0.0001 
 6                    -5.92534   1.40009  -0.0001 
 1                    -4.16335   2.68328  -0.00002 
 6                    -6.39837   0.10916  -0.00012 
 1                    -5.90631  -2.0199   -0.00011 
 1                    -6.60564   2.24122  -0.00011 
 1                    -7.46732  -0.06997  -0.00015 
 7                    -2.30095   0.50155   0.00001 
 7                    -3.11207  -1.60882  -0.00005 
 7                     2.30095   0.50155   0.00007 
 7                     3.11208  -1.60881  -0.00004 
 6                     3.18991  -3.01998   0.00001 
 1                     3.70596  -3.39398  -0.89556 
 1                     3.70553  -3.394     0.89583 
 1                     2.18072  -3.44881  -0.00026 
 6                    -3.1899   -3.01999   0.00005 
 1                    -3.70546  -3.39398   0.89591 
 1                    -3.70601  -3.394    -0.89548 
 1                    -2.18071  -3.44881  -0.00029 
 27                    0.       -1.2362    0.00005 
 

 GradGradGradGradGradGradGradGradGradGradGradGradGradGradGradGradGradGrad
 Berny optimization.
 Initialization pass.
 Trust Radius=3.00D-01 FncErr=1.00D-07 GrdErr=1.00D-07 EigMax=2.50D+02 EigMin=1.00D-04
 Number of steps in this run=      2 maximum allowed number of steps=      2.
 GradGradGradGradGradGradGradGradGradGradGradGradGradGradGradGradGradGrad

                          Input orientation:                          
 ---------------------------------------------------------------------
 Center     Atomic      Atomic             Coordinates (Angstroms)
 Number     Number       Type             X           Y           Z
 ---------------------------------------------------------------------
      1          6           0        0.000000    0.825610    0.000106
      2          6           0       -1.330791    1.349089    0.000047
      3          6           0       -1.266730    2.736757   -0.000010
      4          6           0        0.000000    3.364632    0.000014
      5          6           0        1.266732    2.736756    0.000042
      6          6           0        1.330793    1.349091    0.000085
      7          1           0       -2.168628    3.329793   -0.000045
      8          1           0        0.000000    4.457996   -0.000011
      9          1           0        2.168629    3.329795    0.000048
     10          6           0        3.688065    0.592935   -0.000020
     11          6           0        1.896797   -0.906315    0.000101
     12          6           0        4.166160   -0.744140   -0.000078
     13          6           0        4.533897    1.665236   -0.000058
     14          6           0        5.526716   -1.002193   -0.000193
     15          6           0        5.925339    1.400095   -0.000172
     16          1           0        4.163345    2.683289    0.000011
     17          6           0        6.398377    0.109168   -0.000244
     18          1           0        5.906317   -2.019888   -0.000245
     19          1           0        6.605641    2.241227   -0.000194
     20          1           0        7.467321   -0.069962   -0.000328
     21          6           0       -3.688064    0.592933   -0.000035
     22          6           0       -1.896788   -0.906316    0.000092
     23          6           0       -4.166147   -0.744145   -0.000061
     24          6           0       -4.533891    1.665227   -0.000056
     25          6           0       -5.526715   -1.002201   -0.000097
     26          6           0       -5.925341    1.400087   -0.000100
     27          1           0       -4.163345    2.683284   -0.000023
     28          6           0       -6.398370    0.109159   -0.000124
     29          1           0       -5.906308   -2.019896   -0.000106
     30          1           0       -6.605639    2.241217   -0.000106
     31          1           0       -7.467318   -0.069972   -0.000153
     32          7           0       -2.300948    0.501553    0.000011
     33          7           0       -3.112074   -1.608818   -0.000047
     34          7           0        2.300952    0.501551    0.000072
     35          7           0        3.112079   -1.608811   -0.000041
     36          6           0        3.189913   -3.019984    0.000009
     37          1           0        3.705964   -3.393979   -0.895561
     38          1           0        3.705532   -3.393998    0.895833
     39          1           0        2.180717   -3.448808   -0.000260
     40          6           0       -3.189902   -3.019986    0.000047
     41          1           0       -3.705461   -3.393984    0.895914
     42          1           0       -3.706015   -3.394001   -0.895480
     43          1           0       -2.180706   -3.448810   -0.000288
     44         27           0        0.000000   -1.236195    0.000046
 ---------------------------------------------------------------------
                    Distance matrix (angstroms):
                    1          2          3          4          5
     1  C    0.000000
     2  C    1.430047   0.000000
     3  C    2.292834   1.389146   0.000000
     4  C    2.539022   2.415247   1.413800   0.000000
     5  C    2.292834   2.944952   2.533461   1.413802   0.000000
     6  C    1.430049   2.661584   2.944952   2.415246   1.389143
     7  H    3.312685   2.150618   1.079403   2.168908   3.486171
     8  H    3.632386   3.381761   2.137117   1.093364   2.137118
     9  H    3.312687   4.021087   3.486170   2.168909   1.079405
    10  C    3.695397   5.075499   5.398700   4.613472   3.234010
    11  C    2.568540   3.937533   4.824922   4.673202   3.697153
    12  C    4.452078   5.882013   6.452359   5.851401   4.530267
    13  C    4.610986   5.873203   5.898765   4.841917   3.438390
    14  C    5.821122   7.249409   7.754396   7.043703   5.668087
    15  C    5.953123   7.256309   7.315225   6.242519   4.846574
    16  H    4.558993   5.653815   5.430338   4.218728   2.897107
    17  C    6.438363   7.827991   8.102967   7.178946   5.765241
    18  H    6.556023   7.982840   8.606873   7.992348   6.644653
    19  H    6.755624   7.986417   7.887951   6.700487   5.361856
    20  H    7.520833   8.911817   9.173948   8.219326   6.806245
    21  C    3.695397   2.475583   3.234014   4.613474   5.398702
    22  C    2.568535   2.325340   3.697156   4.673201   4.824918
    23  C    4.452069   3.524326   4.530266   5.851396   6.452352
    24  C    4.610979   3.218663   3.438389   4.841916   5.898762
    25  C    5.821123   4.809817   5.668094   7.043707   7.754400
    26  C    5.953124   4.594832   4.846581   6.242524   7.315230
    27  H    4.558991   3.131044   2.897109   4.218730   5.430340
    28  C    6.438357   5.217066   5.765241   7.178944   8.102965
    29  H    6.556018   5.682025   6.644655   7.992347   8.606871
    30  H    6.755621   5.349759   5.361858   6.700488   7.887952
    31  H    7.520831   6.298468   6.806249   8.219328   9.173949
    32  N    2.323655   1.288224   2.462874   3.673089   4.210044
    33  N    3.951132   3.452851   4.721156   5.866874   6.169112
    34  N    2.323660   3.729327   4.210048   3.673093   2.462875
    35  N    3.951131   5.337440   6.169110   5.866870   4.721149
    36  C    4.996412   6.286936   7.280229   7.137147   6.069488
    37  H    5.686942   6.976224   7.944534   7.759835   6.658668
    38  H    5.686685   6.975948   7.944311   7.759673   6.658553
    39  H    4.798560   5.945629   7.081392   7.153914   6.252725
    40  C    4.996407   4.748169   6.069488   7.137144   7.280224
    41  H    5.686640   5.379440   6.658534   7.759637   7.944259
    42  H    5.686979   5.379643   6.658691   7.759869   7.944579
    43  H    4.798556   4.872596   6.252727   7.153913   7.081388
    44  Co   2.061805   2.907696   4.170006   4.600827   4.170005
                    6          7          8          9         10
     6  C    0.000000
     7  H    4.021085   0.000000
     8  H    3.381760   2.444543   0.000000
     9  H    2.150618   4.337257   2.444543   0.000000
    10  C    2.475582   6.464615   5.342332   3.130349   0.000000
    11  C    2.325342   5.871310   5.689786   4.244822   2.335893
    12  C    3.524333   7.531697   6.664766   4.537298   1.419981
    13  C    3.218668   6.906127   5.325009   2.892273   1.365745
    14  C    4.809814   8.830879   7.769058   5.481138   2.434147
    15  C    4.594829   8.320819   6.667862   4.223341   2.378424
    16  H    3.131045   6.364892   4.525818   2.096869   2.143705
    17  C    5.217070   9.152376   7.736376   5.316314   2.753147
    18  H    5.682028   9.686269   8.766273   6.526056   3.427460
    19  H    5.349760   8.841536   6.967679   4.568594   3.350987
    20  H    6.298468  10.218114   8.732885   6.295592   3.836953
    21  C    5.075500   3.130350   5.342334   6.464617   7.376130
    22  C    3.937530   4.244823   5.689785   5.871308   5.782590
    23  C    5.882005   4.537297   6.664763   7.531692   7.967210
    24  C    5.873198   2.892274   5.325010   6.906125   8.291585
    25  C    7.249413   5.481143   7.769063   8.830884   9.351825
    26  C    7.256312   4.223347   6.667869   8.320824   9.647231
    27  H    5.653815   2.096872   4.525820   6.364894   8.124913
    28  C    7.827987   5.316314   7.736376   9.152375  10.098030
    29  H    7.982838   6.526057   8.766274   9.686268   9.943786
    30  H    7.986416   4.568596   6.967681   8.841538  10.424835
    31  H    8.911817   6.295596   8.732888  10.218116  11.175062
    32  N    3.729324   2.831334   4.576877   5.289241   5.989710
    33  N    5.337442   5.027919   6.818448   7.230195   7.147700
    34  N    1.288229   5.289244   4.576881   2.831338   1.390120
    35  N    3.452848   7.230191   6.818443   5.027914   2.275839
    36  C    4.748173   8.308648   8.129928   6.431385   3.647101
    37  H    5.379622   8.973399   8.728670   6.955188   4.086294
    38  H    5.379464   8.973166   8.728534   6.955134   4.086379
    39  H    4.872597   8.053958   8.202016   6.778614   4.313675
    40  C    6.286932   6.431384   8.129926   8.308645   7.769147
    41  H    6.975895   6.955126   8.728500   8.973110   8.447630
    42  H    6.976273   6.955197   8.728703   8.973452   8.448072
    43  H    5.945627   6.778614   8.202016   8.053956   7.125881
    44  Co   2.907699   5.054819   5.694191   5.054821   4.116739
                   11         12         13         14         15
    11  C    0.000000
    12  C    2.275150   0.000000
    13  C    3.683364   2.437278   0.000000
    14  C    3.631186   1.384812   2.846203   0.000000
    15  C    4.642055   2.773528   1.416478   2.435137   0.000000
    16  H    4.245291   3.427430   1.083393   3.929575   2.179726
    17  C    4.614697   2.389755   2.428504   1.412416   1.374866
    18  H    4.161285   2.157702   3.932388   1.086185   3.420036
    19  H    5.663941   3.855319   2.150323   3.418165   1.081810
    20  H    5.632960   3.369300   3.408209   2.152906   2.130441
    21  C    5.782596   7.967220   8.291591   9.351824   9.647229
    22  C    3.793585   6.065117   6.925792   7.424124   8.155072
    23  C    6.065112   8.332307   9.027507   9.696298  10.316776
    24  C    6.925790   9.027510   9.067788  10.408216  10.462590
    25  C    7.424131   9.696309  10.408224  11.053431  11.701306
    26  C    8.155079  10.316787  10.462598  11.701306  11.850679
    27  H    7.043475   9.007102   8.756623  10.367258  10.169962
    28  C    8.357091  10.598934  11.042456  11.976760  12.391138
    29  H    7.882164  10.152939  11.071498  11.478230  12.316014
    30  H    9.066332  11.177836  11.154417  12.558414  12.559176
    31  H    9.401389  11.652996  12.126009  13.027431  13.473097
    32  N    4.427544   6.585987   6.933200   7.970795   8.275214
    33  N    5.057895   7.329417   8.317470   8.660063   9.525145
    34  N    1.464727   2.242932   2.517976   3.559045   3.734107
    35  N    1.403713   1.363357   3.569446   2.489670   4.119217
    36  C    2.477852   2.476393   4.874175   3.087415   5.198044
    37  H    3.203712   2.834663   5.204138   3.136472   5.358217
    38  H    3.203502   2.834886   5.204292   3.136925   5.358516
    39  H    2.558297   3.355177   5.629467   4.145074   6.126504
    40  C    5.508368   7.700073   9.033736   8.947119  10.130387
    41  H    6.194858   8.353854   9.710071   9.578975  10.795298
    42  H    6.195333   8.354319   9.710500   9.579437  10.795735
    43  H    4.805238   6.899127   8.440341   8.086427   9.445626
    44  Co   1.925268   4.195117   5.382799   5.531668   6.485342
                   16         17         18         19         20
    16  H    0.000000
    17  C    3.409027   0.000000
    18  H    5.015758   2.185179   0.000000
    19  H    2.481980   2.142109   4.318119   0.000000
    20  H    4.300773   1.083849   2.497789   2.466594   0.000000
    21  C    8.124914  10.098036   9.943791  10.424838  11.175064
    22  C    7.043471   8.357092   7.882163   9.066329   9.401385
    23  C    9.007095  10.598930  10.152933  11.177829  11.652988
    24  C    8.756619  11.042455  11.071495  11.154413  12.126004
    25  C   10.367261  11.976768  11.478236  12.558419  13.027435
    26  C   10.169965  12.391145  12.316020  12.559180  13.473100
    27  H    8.326691  10.870881  11.113861  10.778055  11.952103
    28  C   10.870877  12.796747  12.487520  13.177632  13.866848
    29  H   11.113859  12.487521  11.812625  13.217641  13.515036
    30  H   10.778055  13.177635  13.217642  13.211280  14.261479
    31  H   11.952103  13.866852  13.515039  14.261480  14.934639
    32  N    6.822540   8.708170   8.585852   9.074899   9.784974
    33  N    8.447124   9.664376   9.027755  10.452599  10.690729
    34  N    2.868534   4.116170   4.399580   4.642932   5.197884
    35  N    4.418968   3.708262   2.824314   5.198823   4.619112
    36  C    5.785750   4.481723   2.894657   6.272762   5.196043
    37  H    6.159905   4.508073   2.744315   6.400418   5.098857
    38  H    6.159992   4.508497   2.744920   6.400723   5.099351
    39  H    6.444644   5.517957   3.990226   7.208082   6.274137
    40  C    9.305783  10.085966   9.151033  11.119039  11.057987
    41  H    9.982685  10.731389   9.750769  11.784626  11.691169
    42  H    9.983095  10.731839   9.751233  11.785057  11.691620
    43  H    8.823244   9.287620   8.212293  10.467875  10.222576
    44  Co   5.718024   6.538290   5.958083   7.465049   7.557843
                   21         22         23         24         25
    21  C    0.000000
    22  C    2.335898   0.000000
    23  C    1.419979   2.275146   0.000000
    24  C    1.365737   3.683361   2.437276   0.000000
    25  C    2.434150   3.631193   1.384824   2.846204   0.000000
    26  C    2.378424   4.642061   2.773534   1.416486   2.435137
    27  H    2.143702   4.245293   3.427430   1.083394   3.929577
    28  C    2.753142   4.614697   2.389758   2.428503   1.412411
    29  H    3.427459   4.161287   2.157707   3.932386   1.086183
    30  H    3.350983   5.663943   3.855322   2.150327   3.418163
    31  H    3.836952   5.632963   3.369308   3.408212   2.152903
    32  N    1.390123   1.464732   2.242930   2.517970   3.559052
    33  N    2.275845   1.403719   1.363352   3.569444   2.489673
    34  N    5.989714   4.427541   6.585981   6.933198   7.970800
    35  N    7.147700   5.057890   7.329408   8.317462   8.660065
    36  C    7.769153   5.508368   7.700069   9.033734   8.947125
    37  H    8.448023   6.195280   8.354261   9.710443   9.579396
    38  H    8.447690   6.194910   8.353902   9.710122   9.579027
    39  H    7.125887   4.805238   6.899122   8.440339   8.086433
    40  C    3.647101   2.477851   2.476390   4.874170   3.087418
    41  H    4.086383   3.203479   2.834898   5.204294   3.136946
    42  H    4.086292   3.203736   2.834648   5.204128   3.136457
    43  H    4.313677   2.558297   3.355173   5.629463   4.145078
    44  Co   4.116737   1.925260   4.195104   5.382789   5.531666
                   26         27         28         29         30
    26  C    0.000000
    27  H    2.179730   0.000000
    28  C    1.374864   3.409025   0.000000
    29  H    3.420036   5.015757   2.185177   0.000000
    30  H    1.081807   2.481980   2.142109   4.318118   0.000000
    31  H    2.130439   4.300774   1.083854   2.497790   2.466594
    32  N    3.734111   2.868532   4.116168   4.399582   4.642930
    33  N    4.119220   4.418971   3.708259   2.824310   5.198823
    34  N    8.275220   6.822544   8.708167   8.585850   9.074900
    35  N    9.525146   8.447122   9.664370   9.027751  10.452596
    36  C   10.130394   9.305787  10.085966   9.151034  11.119042
    37  H   10.795691   9.983042  10.731791   9.751191  11.785009
    38  H   10.795353   9.982742  10.731434   9.750812  11.784677
    39  H    9.445631   8.823246   9.287619   8.212294  10.467877
    40  C    5.198045   5.785748   4.481720   2.894657   6.272760
    41  H    5.358528   6.159995   4.508509   2.744941   6.400733
    42  H    5.358208   6.159901   4.508056   2.744294   6.400406
    43  H    6.126507   6.444644   5.517955   3.990226   7.208082
    44  Co   6.485341   5.718020   6.538281   5.958075   7.465043
                   31         32         33         34         35
    31  H    0.000000
    32  N    5.197886   0.000000
    33  N    4.619112   2.260882   0.000000
    34  N    9.784975   4.601900   5.809863   0.000000
    35  N   10.690728   5.809861   6.224153   2.260874   0.000000
    36  C   11.057990   6.523095   6.458052   3.632005   1.413319
    37  H   11.691579   7.215276   7.104533   4.236905   2.083622
    38  H   11.691215   7.214957   7.104170   4.236806   2.083668
    39  H   10.222579   5.974167   5.603499   3.952188   2.062287
    40  C    5.196043   3.632007   1.413313   6.523090   6.458048
    41  H    5.099369   4.236803   2.083668   7.214896   7.104113
    42  H    5.098841   4.236916   2.083613   7.215330   7.104584
    43  H    6.274138   3.952192   2.062285   5.974162   5.603496
    44  Co   7.557838   2.883423   3.134303   2.883425   3.134306
                   36         37         38         39         40
    36  C    0.000000
    37  H    1.099193   0.000000
    38  H    1.099204   1.791394   0.000000
    39  H    1.096525   1.769449   1.769477   0.000000
    40  C    6.379815   6.963832   6.963428   5.387712   0.000000
    41  H    6.963383   7.624867   7.410993   5.954261   1.099206
    42  H    6.963879   7.411979   7.624948   5.954665   1.099194
    43  H    5.387712   5.954613   5.954313   4.361423   1.096525
    44  Co   3.654784   4.380903   4.380584   3.106635   3.654776
                   41         42         43         44
    41  H    0.000000
    42  H    1.791394   0.000000
    43  H    1.769480   1.769446   0.000000
    44  Co   4.380533   4.380941   3.106629   0.000000
 Symmetry turned off by external request.
 Stoichiometry    C22H17CoN4(3)
 Framework group  C1[X(C22H17CoN4)]
 Deg. of freedom   126
 Full point group                 C1      NOp   1
 Rotational constants (GHZ):           0.4661263           0.1008953           0.0830302
 General basis read from cards:  (5D, 7F)
 ======================================================================================================
                                       Pseudopotential Parameters
 ======================================================================================================
  Center     Atomic      Valence      Angular      Power
  Number     Number     Electrons     Momentum     of R      Exponent        Coefficient   SO-Coeffient
 ======================================================================================================
    1          6
                                   No pseudopotential on this center.
    2          6
                                   No pseudopotential on this center.
    3          6
                                   No pseudopotential on this center.
    4          6
                                   No pseudopotential on this center.
    5          6
                                   No pseudopotential on this center.
    6          6
                                   No pseudopotential on this center.
    7          1
                                   No pseudopotential on this center.
    8          1
                                   No pseudopotential on this center.
    9          1
                                   No pseudopotential on this center.
   10          6
                                   No pseudopotential on this center.
   11          6
                                   No pseudopotential on this center.
   12          6
                                   No pseudopotential on this center.
   13          6
                                   No pseudopotential on this center.
   14          6
                                   No pseudopotential on this center.
   15          6
                                   No pseudopotential on this center.
   16          1
                                   No pseudopotential on this center.
   17          6
                                   No pseudopotential on this center.
   18          1
                                   No pseudopotential on this center.
   19          1
                                   No pseudopotential on this center.
   20          1
                                   No pseudopotential on this center.
   21          6
                                   No pseudopotential on this center.
   22          6
                                   No pseudopotential on this center.
   23          6
                                   No pseudopotential on this center.
   24          6
                                   No pseudopotential on this center.
   25          6
                                   No pseudopotential on this center.
   26          6
                                   No pseudopotential on this center.
   27          1
                                   No pseudopotential on this center.
   28          6
                                   No pseudopotential on this center.
   29          1
                                   No pseudopotential on this center.
   30          1
                                   No pseudopotential on this center.
   31          1
                                   No pseudopotential on this center.
   32          7
                                   No pseudopotential on this center.
   33          7
                                   No pseudopotential on this center.
   34          7
                                   No pseudopotential on this center.
   35          7
                                   No pseudopotential on this center.
   36          6
                                   No pseudopotential on this center.
   37          1
                                   No pseudopotential on this center.
   38          1
                                   No pseudopotential on this center.
   39          1
                                   No pseudopotential on this center.
   40          6
                                   No pseudopotential on this center.
   41          1
                                   No pseudopotential on this center.
   42          1
                                   No pseudopotential on this center.
   43          1
                                   No pseudopotential on this center.
   44         27           17
                                      F and up 
                                                     2        1.0000000        0.00000000    0.00000000
                                      S - F
                                                     2       23.6600000      283.96056600    0.00000000
                                                     2       10.6100000       47.15684600    0.00000000
                                      P - F
                                                     2       25.0400000      182.21223600    0.00000000
                                                     2       10.4400000       35.23335200    0.00000000
                                      D - F
                                                     2       29.5400000      -26.47533300    0.00000000
                                                     2       10.1800000       -1.82578700    0.00000000
 ======================================================================================================
   441 basis functions,   871 primitive gaussians,   473 cartesian basis functions
    98 alpha electrons       96 beta electrons
       nuclear repulsion energy      2490.6797412521 Hartrees.
 NAtoms=   44 NActive=   44 NUniq=   44 SFac= 1.00D+00 NAtFMM=   60 NAOKFM=F Big=F
 Integral buffers will be    131072 words long.
 Raffenetti 2 integral format.
 Two-electron integral symmetry is turned off.
 Nuclear repulsion after empirical dispersion term =     2490.6204651262 Hartrees.
 One-electron integrals computed using PRISM.
   1 Symmetry operations used in ECPInt.
 ECPInt:  NShTT=   11781 NPrTT=   71406 LenC2=    9532 LenP2D=   32085.
 LDataN:  DoStor=T MaxTD1= 6 Len=  172
 NBasis=   441 RedAO= T EigKep=  3.21D-04  NBF=   441
 NBsUse=   441 1.00D-06 EigRej= -1.00D+00 NBFU=   441
 Initial guess from the checkpoint file:  "b.chk"
 B after Tr=    -0.000000   -0.002902   -0.000005
         Rot=    1.000000   -0.000000    0.000000   -0.000000 Ang=  -0.00 deg.
 Initial guess <Sx>= 0.0000 <Sy>= 0.0000 <Sz>= 1.0000 <S**2>= 2.2298 S= 1.0747
 Requested convergence on RMS density matrix=1.00D-08 within  64 cycles.
 Requested convergence on MAX density matrix=1.00D-06.
 Requested convergence on             energy=1.00D-06.
 No special actions if energy rises.
 EnCoef did    10 forward-backward iterations
 Restarting incremental Fock formation.
 SCF Done:  E(UPBE1PBE) =  -1212.07969638     A.U. after   32 cycles
            NFock= 32  Conv=0.26D-08     -V/T= 2.0550
 <Sx>= 0.0000 <Sy>= 0.0000 <Sz>= 1.0000 <S**2>= 2.3015 S= 1.0973
 <L.S>=  0.00000000000    
 Annihilation of the first spin contaminant:
 S**2 before annihilation     2.3015,   after     2.0088
 QCSCF skips out because SCF is already converged.

 **********************************************************************

            Population analysis using the SCF Density.

 **********************************************************************

 Alpha  occ. eigenvalues --  -14.45373 -14.45373 -14.44918 -14.44918 -10.28391
 Alpha  occ. eigenvalues --  -10.28390 -10.27460 -10.27460 -10.27340 -10.27339
 Alpha  occ. eigenvalues --  -10.27263 -10.27263 -10.26430 -10.26429 -10.23674
 Alpha  occ. eigenvalues --  -10.23674 -10.23497 -10.23497 -10.23040 -10.23040
 Alpha  occ. eigenvalues --  -10.22925 -10.22925 -10.22307 -10.22011 -10.22008
 Alpha  occ. eigenvalues --  -10.21438  -3.93341  -2.45519  -2.43472  -2.43056
 Alpha  occ. eigenvalues --   -1.05981  -1.05886  -0.98375  -0.98071  -0.88204
 Alpha  occ. eigenvalues --   -0.87871  -0.85115  -0.80968  -0.79144  -0.77853
 Alpha  occ. eigenvalues --   -0.77808  -0.75537  -0.74971  -0.73306  -0.71602
 Alpha  occ. eigenvalues --   -0.67194  -0.65959  -0.64546  -0.64203  -0.62735
 Alpha  occ. eigenvalues --   -0.61632  -0.58738  -0.57497  -0.56916  -0.54161
 Alpha  occ. eigenvalues --   -0.53206  -0.52219  -0.49999  -0.49907  -0.49632
 Alpha  occ. eigenvalues --   -0.49270  -0.48023  -0.47170  -0.46645  -0.46101
 Alpha  occ. eigenvalues --   -0.45643  -0.45494  -0.45410  -0.44873  -0.44666
 Alpha  occ. eigenvalues --   -0.42626  -0.41786  -0.40815  -0.39018  -0.38392
 Alpha  occ. eigenvalues --   -0.38213  -0.38010  -0.37418  -0.37326  -0.36758
 Alpha  occ. eigenvalues --   -0.36418  -0.34648  -0.34435  -0.34208  -0.31852
 Alpha  occ. eigenvalues --   -0.31067  -0.30583  -0.27000  -0.26760  -0.26501
 Alpha  occ. eigenvalues --   -0.26046  -0.25942  -0.24578  -0.23893  -0.22745
 Alpha  occ. eigenvalues --   -0.20351  -0.19651  -0.10991
 Alpha virt. eigenvalues --   -0.06205  -0.03354  -0.00171   0.00033   0.00217
 Alpha virt. eigenvalues --    0.02254   0.02686   0.03764   0.03925   0.05513
 Alpha virt. eigenvalues --    0.06008   0.07872   0.08470   0.09746   0.10242
 Alpha virt. eigenvalues --    0.12668   0.13017   0.13668   0.13881   0.14639
 Alpha virt. eigenvalues --    0.15195   0.15334   0.15709   0.15995   0.16489
 Alpha virt. eigenvalues --    0.16892   0.17731   0.17911   0.18038   0.18385
 Alpha virt. eigenvalues --    0.19561   0.19695   0.19706   0.20119   0.21357
 Alpha virt. eigenvalues --    0.21379   0.21456   0.22634   0.23671   0.25519
 Alpha virt. eigenvalues --    0.25608   0.26311   0.26775   0.27789   0.27882
 Alpha virt. eigenvalues --    0.28301   0.28414   0.31084   0.31484   0.31513
 Alpha virt. eigenvalues --    0.33291   0.33314   0.34657   0.34829   0.36057
 Alpha virt. eigenvalues --    0.37286   0.37373   0.39230   0.39708   0.41064
 Alpha virt. eigenvalues --    0.41811   0.43752   0.44317   0.45734   0.46316
 Alpha virt. eigenvalues --    0.48045   0.48558   0.51616   0.51643   0.52667
 Alpha virt. eigenvalues --    0.53689   0.53919   0.56099   0.56277   0.56433
 Alpha virt. eigenvalues --    0.56892   0.57430   0.57850   0.58518   0.58912
 Alpha virt. eigenvalues --    0.58948   0.59449   0.60287   0.61428   0.61449
 Alpha virt. eigenvalues --    0.61830   0.62837   0.63162   0.63370   0.63446
 Alpha virt. eigenvalues --    0.63510   0.63636   0.64426   0.64667   0.65178
 Alpha virt. eigenvalues --    0.65741   0.66125   0.66603   0.66901   0.67453
 Alpha virt. eigenvalues --    0.68378   0.68640   0.69933   0.71040   0.72161
 Alpha virt. eigenvalues --    0.72921   0.73164   0.74519   0.75576   0.75982
 Alpha virt. eigenvalues --    0.77561   0.78029   0.79283   0.79583   0.80976
 Alpha virt. eigenvalues --    0.81423   0.82613   0.83104   0.83795   0.84306
 Alpha virt. eigenvalues --    0.84658   0.84922   0.86396   0.86413   0.87752
 Alpha virt. eigenvalues --    0.87909   0.88530   0.89559   0.90015   0.90335
 Alpha virt. eigenvalues --    0.90976   0.91811   0.92547   0.93350   0.93668
 Alpha virt. eigenvalues --    0.93867   0.94950   0.95109   0.95721   0.95722
 Alpha virt. eigenvalues --    0.97274   0.97599   0.98075   0.98425   0.98571
 Alpha virt. eigenvalues --    1.00076   1.00618   1.01639   1.01919   1.02089
 Alpha virt. eigenvalues --    1.02638   1.04411   1.06457   1.07224   1.07437
 Alpha virt. eigenvalues --    1.08517   1.09581   1.09682   1.10887   1.13989
 Alpha virt. eigenvalues --    1.15256   1.15804   1.16362   1.18588   1.18947
 Alpha virt. eigenvalues --    1.19180   1.19654   1.23913   1.23990   1.24428
 Alpha virt. eigenvalues --    1.24461   1.26310   1.26339   1.26816   1.29166
 Alpha virt. eigenvalues --    1.29316   1.29862   1.31152   1.33733   1.34181
 Alpha virt. eigenvalues --    1.35969   1.36121   1.36186   1.38719   1.40268
 Alpha virt. eigenvalues --    1.41661   1.42538   1.42544   1.43399   1.45074
 Alpha virt. eigenvalues --    1.45167   1.45537   1.46532   1.48292   1.48363
 Alpha virt. eigenvalues --    1.49492   1.50235   1.50309   1.50513   1.50924
 Alpha virt. eigenvalues --    1.51463   1.52749   1.53649   1.57282   1.57808
 Alpha virt. eigenvalues --    1.59066   1.61788   1.64988   1.65384   1.65707
 Alpha virt. eigenvalues --    1.69276   1.71618   1.72402   1.76780   1.77444
 Alpha virt. eigenvalues --    1.77840   1.80422   1.80657   1.81602   1.82896
 Alpha virt. eigenvalues --    1.86521   1.86615   1.87907   1.88071   1.88268
 Alpha virt. eigenvalues --    1.88386   1.90894   1.91552   1.91589   1.94363
 Alpha virt. eigenvalues --    1.95327   1.95681   1.96893   1.97007   1.98283
 Alpha virt. eigenvalues --    1.98288   1.98421   1.99247   1.99406   1.99864
 Alpha virt. eigenvalues --    2.00044   2.01447   2.03704   2.03947   2.04536
 Alpha virt. eigenvalues --    2.05836   2.06287   2.08226   2.08494   2.12004
 Alpha virt. eigenvalues --    2.12085   2.13342   2.14556   2.15058   2.15901
 Alpha virt. eigenvalues --    2.16347   2.16608   2.19023   2.19438   2.19593
 Alpha virt. eigenvalues --    2.20485   2.21363   2.21611   2.22115   2.23285
 Alpha virt. eigenvalues --    2.24552   2.25616   2.26534   2.27884   2.27941
 Alpha virt. eigenvalues --    2.28153   2.28769   2.28781   2.29752   2.32811
 Alpha virt. eigenvalues --    2.34609   2.38431   2.39431   2.40779   2.40920
 Alpha virt. eigenvalues --    2.42573   2.44249   2.44291   2.46656   2.47531
 Alpha virt. eigenvalues --    2.51292   2.53899   2.57187   2.58066   2.58514
 Alpha virt. eigenvalues --    2.59150   2.60930   2.61589   2.62774   2.64622
 Alpha virt. eigenvalues --    2.65366   2.66249   2.67928   2.68796   2.68805
 Alpha virt. eigenvalues --    2.69461   2.69509   2.73325   2.75648   2.76452
 Alpha virt. eigenvalues --    2.77344   2.77908   2.78319   2.78729   2.80519
 Alpha virt. eigenvalues --    2.83344   2.86167   2.88346   2.90200   2.93205
 Alpha virt. eigenvalues --    2.93418   2.97527   2.99245   3.00561   3.01745
 Alpha virt. eigenvalues --    3.06468   3.06604   3.16812   3.20716   3.21520
 Alpha virt. eigenvalues --    3.31531   3.38839   3.48593   3.49509   3.51690
 Alpha virt. eigenvalues --    3.56163   3.56772   5.55371   5.56922   5.57463
 Alpha virt. eigenvalues --    5.60005   5.61102   5.61237   5.63279  45.70535
 Alpha virt. eigenvalues --   45.83684  45.92923  63.00997
  Beta  occ. eigenvalues --  -14.45237 -14.45236 -14.44905 -14.44905 -10.28123
  Beta  occ. eigenvalues --  -10.28122 -10.27454 -10.27454 -10.27349 -10.27349
  Beta  occ. eigenvalues --  -10.27300 -10.27299 -10.26312 -10.26311 -10.23615
  Beta  occ. eigenvalues --  -10.23615 -10.23487 -10.23487 -10.23053 -10.23053
  Beta  occ. eigenvalues --  -10.22888 -10.22888 -10.22198 -10.22116 -10.22105
  Beta  occ. eigenvalues --  -10.22071  -3.85386  -2.36306  -2.36275  -2.33847
  Beta  occ. eigenvalues --   -1.05770  -1.05668  -0.98190  -0.97855  -0.88190
  Beta  occ. eigenvalues --   -0.87802  -0.85252  -0.80899  -0.79121  -0.77794
  Beta  occ. eigenvalues --   -0.77764  -0.75388  -0.74745  -0.73327  -0.71846
  Beta  occ. eigenvalues --   -0.67232  -0.65966  -0.64264  -0.64156  -0.62719
  Beta  occ. eigenvalues --   -0.61545  -0.58722  -0.57620  -0.56897  -0.54148
  Beta  occ. eigenvalues --   -0.53195  -0.52209  -0.49656  -0.49507  -0.49428
  Beta  occ. eigenvalues --   -0.49156  -0.48260  -0.47145  -0.46601  -0.46066
  Beta  occ. eigenvalues --   -0.45698  -0.45455  -0.45048  -0.44930  -0.44332
  Beta  occ. eigenvalues --   -0.42644  -0.41751  -0.40828  -0.38762  -0.38442
  Beta  occ. eigenvalues --   -0.38089  -0.37291  -0.37056  -0.36990  -0.36797
  Beta  occ. eigenvalues --   -0.36040  -0.34781  -0.33836  -0.33505  -0.31544
  Beta  occ. eigenvalues --   -0.29966  -0.26664  -0.26622  -0.25792  -0.24827
  Beta  occ. eigenvalues --   -0.23762  -0.23124  -0.21624  -0.19822  -0.19541
  Beta  occ. eigenvalues --   -0.19325
  Beta virt. eigenvalues --   -0.05145  -0.03928  -0.00800  -0.00403  -0.00045
  Beta virt. eigenvalues --    0.01317   0.01733   0.02451   0.03570   0.05498
  Beta virt. eigenvalues --    0.05708   0.05883   0.07755   0.09360   0.09387
  Beta virt. eigenvalues --    0.10261   0.10972   0.12744   0.13134   0.13802
  Beta virt. eigenvalues --    0.14171   0.14996   0.15328   0.15984   0.15988
  Beta virt. eigenvalues --    0.16532   0.16631   0.16948   0.18011   0.18218
  Beta virt. eigenvalues --    0.18369   0.18911   0.19704   0.19796   0.19932
  Beta virt. eigenvalues --    0.21483   0.21647   0.21976   0.22611   0.22745
  Beta virt. eigenvalues --    0.23724   0.25636   0.26390   0.26816   0.27098
  Beta virt. eigenvalues --    0.27914   0.28473   0.28823   0.29171   0.31236
  Beta virt. eigenvalues --    0.31753   0.31939   0.33302   0.33411   0.34873
  Beta virt. eigenvalues --    0.34959   0.36162   0.37581   0.37632   0.39346
  Beta virt. eigenvalues --    0.39884   0.41094   0.42251   0.43898   0.44774
  Beta virt. eigenvalues --    0.45722   0.46689   0.48454   0.48921   0.51660
  Beta virt. eigenvalues --    0.51797   0.52733   0.53779   0.54047   0.56140
  Beta virt. eigenvalues --    0.56332   0.56630   0.56946   0.57446   0.58027
  Beta virt. eigenvalues --    0.58648   0.58963   0.59180   0.59496   0.60349
  Beta virt. eigenvalues --    0.61590   0.61665   0.61743   0.62774   0.63327
  Beta virt. eigenvalues --    0.63373   0.63494   0.63691   0.63699   0.64465
  Beta virt. eigenvalues --    0.64675   0.65186   0.65831   0.66266   0.66773
  Beta virt. eigenvalues --    0.67366   0.67708   0.68584   0.68672   0.69819
  Beta virt. eigenvalues --    0.71031   0.72422   0.72766   0.73465   0.74505
  Beta virt. eigenvalues --    0.75557   0.76119   0.77674   0.78472   0.79383
  Beta virt. eigenvalues --    0.80250   0.81200   0.81667   0.82834   0.83146
  Beta virt. eigenvalues --    0.84211   0.84394   0.84711   0.85178   0.86646
  Beta virt. eigenvalues --    0.86895   0.87758   0.87922   0.88530   0.89813
  Beta virt. eigenvalues --    0.90067   0.90398   0.91147   0.91962   0.92597
  Beta virt. eigenvalues --    0.93452   0.93674   0.93865   0.95738   0.95841
  Beta virt. eigenvalues --    0.96082   0.96279   0.97258   0.98023   0.98071
  Beta virt. eigenvalues --    0.98504   0.98541   1.00075   1.00695   1.01633
  Beta virt. eigenvalues --    1.01967   1.02137   1.02722   1.04492   1.06558
  Beta virt. eigenvalues --    1.07264   1.08565   1.08949   1.09697   1.11242
  Beta virt. eigenvalues --    1.14042   1.15358   1.15831   1.16387   1.16688
  Beta virt. eigenvalues --    1.18610   1.18978   1.19285   1.19687   1.24057
  Beta virt. eigenvalues --    1.24114   1.24525   1.24608   1.26508   1.26692
  Beta virt. eigenvalues --    1.26938   1.29349   1.29468   1.30020   1.31138
  Beta virt. eigenvalues --    1.34110   1.34469   1.36254   1.36302   1.36432
  Beta virt. eigenvalues --    1.38858   1.40417   1.41886   1.42996   1.43083
  Beta virt. eigenvalues --    1.43515   1.45092   1.45167   1.45697   1.46699
  Beta virt. eigenvalues --    1.48470   1.48538   1.49683   1.50320   1.50404
  Beta virt. eigenvalues --    1.50540   1.51205   1.51668   1.53261   1.54904
  Beta virt. eigenvalues --    1.57506   1.57708   1.59936   1.61926   1.65045
  Beta virt. eigenvalues --    1.65629   1.66449   1.69338   1.72079   1.72560
  Beta virt. eigenvalues --    1.77137   1.77386   1.77976   1.80474   1.80626
  Beta virt. eigenvalues --    1.81694   1.82982   1.86718   1.86734   1.87869
  Beta virt. eigenvalues --    1.88069   1.88203   1.88332   1.91134   1.91517
  Beta virt. eigenvalues --    1.91603   1.94371   1.95342   1.95691   1.96944
  Beta virt. eigenvalues --    1.97029   1.98273   1.98386   1.98405   1.99318
  Beta virt. eigenvalues --    1.99508   2.00090   2.00140   2.01438   2.03869
  Beta virt. eigenvalues --    2.03985   2.04737   2.06086   2.06625   2.08329
  Beta virt. eigenvalues --    2.08457   2.11909   2.12240   2.13785   2.14622
  Beta virt. eigenvalues --    2.15089   2.16086   2.16425   2.16643   2.19128
  Beta virt. eigenvalues --    2.19581   2.19839   2.20554   2.21453   2.21882
  Beta virt. eigenvalues --    2.22215   2.23637   2.24736   2.25844   2.26777
  Beta virt. eigenvalues --    2.28022   2.28182   2.28302   2.28733   2.28738
  Beta virt. eigenvalues --    2.29941   2.33056   2.34937   2.38607   2.39650
  Beta virt. eigenvalues --    2.40911   2.41164   2.44260   2.44652   2.47022
  Beta virt. eigenvalues --    2.47575   2.48655   2.51280   2.53938   2.57344
  Beta virt. eigenvalues --    2.58160   2.58484   2.59409   2.61277   2.61658
  Beta virt. eigenvalues --    2.63059   2.64833   2.65543   2.66341   2.68068
  Beta virt. eigenvalues --    2.68907   2.68940   2.69728   2.72304   2.73638
  Beta virt. eigenvalues --    2.75795   2.77309   2.77484   2.77936   2.78445
  Beta virt. eigenvalues --    2.79184   2.80570   2.83615   2.86611   2.88388
  Beta virt. eigenvalues --    2.90255   2.93265   2.94513   2.97896   2.99104
  Beta virt. eigenvalues --    3.01253   3.01728   3.06609   3.06780   3.16939
  Beta virt. eigenvalues --    3.21007   3.21641   3.31335   3.38863   3.48620
  Beta virt. eigenvalues --    3.50366   3.51833   3.56644   3.59004   5.61884
  Beta virt. eigenvalues --    5.63716   5.63978   5.64462   5.65899   5.68265
  Beta virt. eigenvalues --    5.69842  45.81228  45.93571  46.01061  63.08075
          Condensed to atoms (all electrons):
               1          2          3          4          5          6
     1  C    5.260829   0.485215  -0.061654  -0.058483  -0.061655   0.485215
     2  C    0.485215   4.569356   0.522520  -0.019317  -0.035875  -0.017307
     3  C   -0.061654   0.522520   5.051830   0.529124  -0.027608  -0.035875
     4  C   -0.058483  -0.019317   0.529124   4.908801   0.529122  -0.019317
     5  C   -0.061655  -0.035875  -0.027608   0.529122   5.051833   0.522523
     6  C    0.485215  -0.017307  -0.035875  -0.019317   0.522523   4.569355
     7  H    0.006588  -0.041346   0.344246  -0.037376   0.003621   0.000719
     8  H    0.001505   0.002903  -0.036171   0.364418  -0.036171   0.002903
     9  H    0.006588   0.000719   0.003621  -0.037376   0.344246  -0.041346
    10  C    0.006574  -0.000036   0.000002   0.000150  -0.005797  -0.054842
    11  C    0.011824   0.002079  -0.000029   0.000069   0.002330  -0.071480
    12  C   -0.000754   0.000001  -0.000000   0.000001   0.000109   0.008880
    13  C    0.000221   0.000000  -0.000001   0.000053   0.002559  -0.005293
    14  C    0.000002  -0.000000   0.000000  -0.000000   0.000002  -0.000030
    15  C    0.000002  -0.000000   0.000000  -0.000001   0.000079   0.000088
    16  H   -0.000029   0.000000   0.000001   0.000109   0.000294   0.000976
    17  C   -0.000000   0.000000   0.000000   0.000000  -0.000001  -0.000000
    18  H   -0.000000   0.000000  -0.000000   0.000000  -0.000000   0.000003
    19  H   -0.000000   0.000000  -0.000000   0.000000   0.000002  -0.000003
    20  H    0.000000  -0.000000   0.000000  -0.000000  -0.000000  -0.000000
    21  C    0.006574  -0.054843  -0.005797   0.000150   0.000002  -0.000036
    22  C    0.011825  -0.071481   0.002330   0.000069  -0.000029   0.002079
    23  C   -0.000754   0.008880   0.000109   0.000001  -0.000000   0.000001
    24  C    0.000221  -0.005293   0.002559   0.000053  -0.000001   0.000000
    25  C    0.000002  -0.000030   0.000002  -0.000000   0.000000  -0.000000
    26  C    0.000002   0.000088   0.000079  -0.000001   0.000000  -0.000000
    27  H   -0.000029   0.000976   0.000294   0.000109   0.000001   0.000000
    28  C   -0.000000  -0.000000  -0.000001   0.000000   0.000000   0.000000
    29  H   -0.000000   0.000003  -0.000000   0.000000  -0.000000   0.000000
    30  H   -0.000000  -0.000003   0.000002   0.000000  -0.000000   0.000000
    31  H    0.000000  -0.000000  -0.000000  -0.000000   0.000000  -0.000000
    32  N   -0.040395   0.295456  -0.069990   0.004961  -0.000046   0.004893
    33  N    0.001316   0.006038  -0.000187   0.000002   0.000000  -0.000031
    34  N   -0.040394   0.004893  -0.000046   0.004961  -0.069991   0.295453
    35  N    0.001316  -0.000031   0.000000   0.000002  -0.000187   0.006038
    36  C   -0.000010   0.000001  -0.000000  -0.000000   0.000002  -0.000077
    37  H   -0.000000  -0.000000   0.000000   0.000000  -0.000000   0.000004
    38  H   -0.000000  -0.000000   0.000000   0.000000  -0.000000   0.000004
    39  H   -0.000017   0.000001   0.000000  -0.000000   0.000000  -0.000008
    40  C   -0.000010  -0.000077   0.000002  -0.000000  -0.000000   0.000001
    41  H   -0.000000   0.000004  -0.000000   0.000000   0.000000  -0.000000
    42  H   -0.000000   0.000004  -0.000000   0.000000   0.000000  -0.000000
    43  H   -0.000017  -0.000008   0.000000  -0.000000   0.000000   0.000001
    44  Co   0.249942  -0.062344   0.003946   0.003641   0.003946  -0.062344
               7          8          9         10         11         12
     1  C    0.006588   0.001505   0.006588   0.006574   0.011824  -0.000754
     2  C   -0.041346   0.002903   0.000719  -0.000036   0.002079   0.000001
     3  C    0.344246  -0.036171   0.003621   0.000002  -0.000029  -0.000000
     4  C   -0.037376   0.364418  -0.037376   0.000150   0.000069   0.000001
     5  C    0.003621  -0.036171   0.344246  -0.005797   0.002330   0.000109
     6  C    0.000719   0.002903  -0.041346  -0.054842  -0.071480   0.008880
     7  H    0.560634  -0.004025  -0.000087  -0.000000  -0.000001   0.000000
     8  H   -0.004025   0.549744  -0.004025  -0.000003   0.000001  -0.000000
     9  H   -0.000087  -0.004025   0.560635   0.000496  -0.000205  -0.000049
    10  C   -0.000000  -0.000003   0.000496   4.640769  -0.062579   0.503234
    11  C   -0.000001   0.000001  -0.000205  -0.062579   4.848850  -0.057736
    12  C    0.000000  -0.000000  -0.000049   0.503234  -0.057736   4.648130
    13  C   -0.000000   0.000002  -0.000208   0.553662   0.004793  -0.058905
    14  C   -0.000000   0.000000   0.000001  -0.047757   0.005698   0.538293
    15  C   -0.000000   0.000000   0.000132  -0.004997  -0.000063  -0.037819
    16  H    0.000000  -0.000010   0.006267  -0.033903  -0.000154   0.003722
    17  C    0.000000  -0.000000   0.000002  -0.039742  -0.000081  -0.009014
    18  H    0.000000  -0.000000  -0.000000   0.003959  -0.000206  -0.037607
    19  H    0.000000   0.000000  -0.000009   0.001926   0.000003   0.000967
    20  H   -0.000000  -0.000000   0.000000   0.000921   0.000003   0.002380
    21  C    0.000496  -0.000003  -0.000000  -0.000000  -0.000007   0.000000
    22  C   -0.000205   0.000001  -0.000001  -0.000007  -0.014370  -0.000002
    23  C   -0.000049  -0.000000   0.000000   0.000000  -0.000002  -0.000000
    24  C   -0.000208   0.000002  -0.000000   0.000000   0.000000   0.000000
    25  C    0.000001   0.000000  -0.000000  -0.000000   0.000000   0.000000
    26  C    0.000132   0.000000  -0.000000  -0.000000  -0.000000  -0.000000
    27  H    0.006267  -0.000010   0.000000   0.000000   0.000000  -0.000000
    28  C    0.000002  -0.000000   0.000000   0.000000  -0.000000  -0.000000
    29  H   -0.000000  -0.000000   0.000000   0.000000   0.000000  -0.000000
    30  H   -0.000009   0.000000   0.000000   0.000000   0.000000  -0.000000
    31  H    0.000000  -0.000000  -0.000000  -0.000000   0.000000   0.000000
    32  N   -0.003910  -0.000107   0.000007   0.000000   0.000242   0.000000
    33  N    0.000002  -0.000000  -0.000000   0.000000   0.000026   0.000000
    34  N    0.000007  -0.000107  -0.003910   0.254428   0.335020  -0.035768
    35  N   -0.000000  -0.000000   0.000002  -0.045751   0.302075   0.273158
    36  C   -0.000000   0.000000  -0.000000   0.005825  -0.042212  -0.048714
    37  H    0.000000  -0.000000   0.000000  -0.000140   0.000752  -0.001220
    38  H    0.000000  -0.000000   0.000000  -0.000140   0.000747  -0.001216
    39  H    0.000000   0.000000   0.000000   0.000020  -0.000595   0.002573
    40  C   -0.000000   0.000000  -0.000000   0.000000   0.000016   0.000000
    41  H    0.000000  -0.000000   0.000000  -0.000000  -0.000000  -0.000000
    42  H    0.000000  -0.000000   0.000000  -0.000000  -0.000000  -0.000000
    43  H    0.000000   0.000000   0.000000  -0.000000  -0.000002  -0.000000
    44  Co  -0.000652   0.000102  -0.000652   0.008131   0.386659   0.004084
              13         14         15         16         17         18
     1  C    0.000221   0.000002   0.000002  -0.000029  -0.000000  -0.000000
     2  C    0.000000  -0.000000  -0.000000   0.000000   0.000000   0.000000
     3  C   -0.000001   0.000000   0.000000   0.000001   0.000000  -0.000000
     4  C    0.000053  -0.000000  -0.000001   0.000109   0.000000   0.000000
     5  C    0.002559   0.000002   0.000079   0.000294  -0.000001  -0.000000
     6  C   -0.005293  -0.000030   0.000088   0.000976  -0.000000   0.000003
     7  H   -0.000000  -0.000000  -0.000000   0.000000   0.000000   0.000000
     8  H    0.000002   0.000000   0.000000  -0.000010  -0.000000  -0.000000
     9  H   -0.000208   0.000001   0.000132   0.006267   0.000002  -0.000000
    10  C    0.553662  -0.047757  -0.004997  -0.033903  -0.039742   0.003959
    11  C    0.004793   0.005698  -0.000063  -0.000154  -0.000081  -0.000206
    12  C   -0.058905   0.538293  -0.037819   0.003722  -0.009014  -0.037607
    13  C    5.037260  -0.045227   0.498619   0.354659  -0.037239   0.000323
    14  C   -0.045227   5.048628  -0.036889   0.000447   0.509378   0.362130
    15  C    0.498619  -0.036889   4.896543  -0.034539   0.568158   0.003773
    16  H    0.354659   0.000447  -0.034539   0.514502   0.003659   0.000013
    17  C   -0.037239   0.509378   0.568158   0.003659   4.881818  -0.034817
    18  H    0.000323   0.362130   0.003773   0.000013  -0.034817   0.535320
    19  H   -0.036175   0.003935   0.369041  -0.003880  -0.035831  -0.000143
    20  H    0.004161  -0.037313  -0.037072  -0.000151   0.368535  -0.004155
    21  C    0.000000  -0.000000  -0.000000   0.000000   0.000000   0.000000
    22  C    0.000000   0.000000  -0.000000   0.000000  -0.000000   0.000000
    23  C    0.000000   0.000000  -0.000000  -0.000000  -0.000000  -0.000000
    24  C    0.000000  -0.000000  -0.000000   0.000000   0.000000   0.000000
    25  C   -0.000000  -0.000000   0.000000  -0.000000  -0.000000   0.000000
    26  C   -0.000000   0.000000  -0.000000  -0.000000   0.000000   0.000000
    27  H    0.000000  -0.000000  -0.000000   0.000000   0.000000  -0.000000
    28  C    0.000000  -0.000000   0.000000   0.000000   0.000000   0.000000
    29  H    0.000000   0.000000   0.000000  -0.000000   0.000000  -0.000000
    30  H   -0.000000  -0.000000   0.000000  -0.000000   0.000000   0.000000
    31  H   -0.000000   0.000000   0.000000  -0.000000   0.000000   0.000000
    32  N   -0.000000  -0.000000   0.000000   0.000000   0.000000  -0.000000
    33  N    0.000000  -0.000000   0.000000   0.000000   0.000000  -0.000000
    34  N   -0.082773   0.009261   0.005311  -0.005544  -0.000148  -0.000095
    35  N    0.009446  -0.087094  -0.000157  -0.000094   0.005483  -0.007532
    36  C   -0.000112  -0.003310   0.000009   0.000003  -0.000115   0.004383
    37  H   -0.000009   0.002919  -0.000002  -0.000000  -0.000009   0.000524
    38  H   -0.000009   0.002916  -0.000002  -0.000000  -0.000009   0.000523
    39  H    0.000006   0.000013  -0.000000  -0.000000   0.000002  -0.000030
    40  C    0.000000   0.000000  -0.000000   0.000000   0.000000  -0.000000
    41  H    0.000000   0.000000  -0.000000   0.000000  -0.000000  -0.000000
    42  H    0.000000   0.000000  -0.000000   0.000000  -0.000000  -0.000000
    43  H   -0.000000   0.000000  -0.000000   0.000000  -0.000000   0.000000
    44  Co  -0.000557  -0.000622  -0.000016   0.000050   0.000024   0.000029
              19         20         21         22         23         24
     1  C   -0.000000   0.000000   0.006574   0.011825  -0.000754   0.000221
     2  C    0.000000  -0.000000  -0.054843  -0.071481   0.008880  -0.005293
     3  C   -0.000000   0.000000  -0.005797   0.002330   0.000109   0.002559
     4  C    0.000000  -0.000000   0.000150   0.000069   0.000001   0.000053
     5  C    0.000002  -0.000000   0.000002  -0.000029  -0.000000  -0.000001
     6  C   -0.000003  -0.000000  -0.000036   0.002079   0.000001   0.000000
     7  H    0.000000  -0.000000   0.000496  -0.000205  -0.000049  -0.000208
     8  H    0.000000  -0.000000  -0.000003   0.000001  -0.000000   0.000002
     9  H   -0.000009   0.000000  -0.000000  -0.000001   0.000000  -0.000000
    10  C    0.001926   0.000921  -0.000000  -0.000007   0.000000   0.000000
    11  C    0.000003   0.000003  -0.000007  -0.014370  -0.000002   0.000000
    12  C    0.000967   0.002380   0.000000  -0.000002  -0.000000   0.000000
    13  C   -0.036175   0.004161   0.000000   0.000000   0.000000   0.000000
    14  C    0.003935  -0.037313  -0.000000   0.000000   0.000000  -0.000000
    15  C    0.369041  -0.037072  -0.000000  -0.000000  -0.000000  -0.000000
    16  H   -0.003880  -0.000151   0.000000   0.000000  -0.000000   0.000000
    17  C   -0.035831   0.368535   0.000000  -0.000000  -0.000000   0.000000
    18  H   -0.000143  -0.004155   0.000000   0.000000  -0.000000   0.000000
    19  H    0.533972  -0.004819   0.000000   0.000000  -0.000000  -0.000000
    20  H   -0.004819   0.539278  -0.000000   0.000000   0.000000  -0.000000
    21  C    0.000000  -0.000000   4.640760  -0.062577   0.503234   0.553664
    22  C    0.000000   0.000000  -0.062577   4.848859  -0.057737   0.004793
    23  C   -0.000000   0.000000   0.503234  -0.057737   4.648139  -0.058906
    24  C   -0.000000  -0.000000   0.553664   0.004793  -0.058906   5.037270
    25  C   -0.000000   0.000000  -0.047756   0.005697   0.538291  -0.045227
    26  C    0.000000   0.000000  -0.004997  -0.000063  -0.037818   0.498616
    27  H   -0.000000  -0.000000  -0.033903  -0.000154   0.003722   0.354658
    28  C    0.000000   0.000000  -0.039742  -0.000081  -0.009014  -0.037239
    29  H    0.000000   0.000000   0.003959  -0.000206  -0.037607   0.000323
    30  H    0.000000   0.000000   0.001926   0.000003   0.000967  -0.036175
    31  H    0.000000   0.000000   0.000921   0.000003   0.002380   0.004161
    32  N    0.000000   0.000000   0.254427   0.335018  -0.035767  -0.082775
    33  N   -0.000000  -0.000000  -0.045751   0.302073   0.273160   0.009446
    34  N   -0.000100   0.000003   0.000000   0.000242   0.000000  -0.000000
    35  N    0.000004  -0.000103   0.000000   0.000026   0.000000   0.000000
    36  C   -0.000000  -0.000002   0.000000   0.000016   0.000000   0.000000
    37  H   -0.000000   0.000000  -0.000000  -0.000000  -0.000000   0.000000
    38  H   -0.000000   0.000000  -0.000000  -0.000000  -0.000000   0.000000
    39  H   -0.000000  -0.000000  -0.000000  -0.000002  -0.000000  -0.000000
    40  C    0.000000  -0.000000   0.005825  -0.042211  -0.048714  -0.000112
    41  H   -0.000000   0.000000  -0.000140   0.000746  -0.001216  -0.000009
    42  H   -0.000000   0.000000  -0.000140   0.000752  -0.001221  -0.000009
    43  H    0.000000   0.000000   0.000020  -0.000595   0.002573   0.000006
    44  Co   0.000015  -0.000001   0.008131   0.386661   0.004084  -0.000557
              25         26         27         28         29         30
     1  C    0.000002   0.000002  -0.000029  -0.000000  -0.000000  -0.000000
     2  C   -0.000030   0.000088   0.000976  -0.000000   0.000003  -0.000003
     3  C    0.000002   0.000079   0.000294  -0.000001  -0.000000   0.000002
     4  C   -0.000000  -0.000001   0.000109   0.000000   0.000000   0.000000
     5  C    0.000000   0.000000   0.000001   0.000000  -0.000000  -0.000000
     6  C   -0.000000  -0.000000   0.000000   0.000000   0.000000   0.000000
     7  H    0.000001   0.000132   0.006267   0.000002  -0.000000  -0.000009
     8  H    0.000000   0.000000  -0.000010  -0.000000  -0.000000   0.000000
     9  H   -0.000000  -0.000000   0.000000   0.000000   0.000000   0.000000
    10  C   -0.000000  -0.000000   0.000000   0.000000   0.000000   0.000000
    11  C    0.000000  -0.000000   0.000000  -0.000000   0.000000   0.000000
    12  C    0.000000  -0.000000  -0.000000  -0.000000  -0.000000  -0.000000
    13  C   -0.000000  -0.000000   0.000000   0.000000   0.000000  -0.000000
    14  C   -0.000000   0.000000  -0.000000  -0.000000   0.000000  -0.000000
    15  C    0.000000  -0.000000  -0.000000   0.000000   0.000000   0.000000
    16  H   -0.000000  -0.000000   0.000000   0.000000  -0.000000  -0.000000
    17  C   -0.000000   0.000000   0.000000   0.000000   0.000000   0.000000
    18  H    0.000000   0.000000  -0.000000   0.000000  -0.000000   0.000000
    19  H   -0.000000   0.000000  -0.000000   0.000000   0.000000   0.000000
    20  H    0.000000   0.000000  -0.000000   0.000000   0.000000   0.000000
    21  C   -0.047756  -0.004997  -0.033903  -0.039742   0.003959   0.001926
    22  C    0.005697  -0.000063  -0.000154  -0.000081  -0.000206   0.000003
    23  C    0.538291  -0.037818   0.003722  -0.009014  -0.037607   0.000967
    24  C   -0.045227   0.498616   0.354658  -0.037239   0.000323  -0.036175
    25  C    5.048621  -0.036889   0.000447   0.509381   0.362131   0.003935
    26  C   -0.036889   4.896545  -0.034539   0.568159   0.003773   0.369041
    27  H    0.000447  -0.034539   0.514503   0.003659   0.000013  -0.003880
    28  C    0.509381   0.568159   0.003659   4.881814  -0.034817  -0.035831
    29  H    0.362131   0.003773   0.000013  -0.034817   0.535320  -0.000143
    30  H    0.003935   0.369041  -0.003880  -0.035831  -0.000143   0.533972
    31  H   -0.037314  -0.037073  -0.000151   0.368534  -0.004156  -0.004819
    32  N    0.009261   0.005311  -0.005544  -0.000148  -0.000095  -0.000100
    33  N   -0.087093  -0.000157  -0.000094   0.005483  -0.007532   0.000004
    34  N   -0.000000   0.000000   0.000000   0.000000  -0.000000   0.000000
    35  N   -0.000000   0.000000   0.000000   0.000000  -0.000000  -0.000000
    36  C    0.000000  -0.000000   0.000000   0.000000  -0.000000   0.000000
    37  H    0.000000  -0.000000   0.000000  -0.000000  -0.000000  -0.000000
    38  H    0.000000  -0.000000   0.000000  -0.000000  -0.000000  -0.000000
    39  H    0.000000  -0.000000   0.000000  -0.000000   0.000000   0.000000
    40  C   -0.003310   0.000009   0.000003  -0.000115   0.004383  -0.000000
    41  H    0.002916  -0.000002  -0.000000  -0.000009   0.000523  -0.000000
    42  H    0.002919  -0.000002  -0.000000  -0.000009   0.000524  -0.000000
    43  H    0.000013  -0.000000  -0.000000   0.000002  -0.000030  -0.000000
    44  Co  -0.000622  -0.000016   0.000050   0.000024   0.000029   0.000015
              31         32         33         34         35         36
     1  C    0.000000  -0.040395   0.001316  -0.040394   0.001316  -0.000010
     2  C   -0.000000   0.295456   0.006038   0.004893  -0.000031   0.000001
     3  C   -0.000000  -0.069990  -0.000187  -0.000046   0.000000  -0.000000
     4  C   -0.000000   0.004961   0.000002   0.004961   0.000002  -0.000000
     5  C    0.000000  -0.000046   0.000000  -0.069991  -0.000187   0.000002
     6  C   -0.000000   0.004893  -0.000031   0.295453   0.006038  -0.000077
     7  H    0.000000  -0.003910   0.000002   0.000007  -0.000000  -0.000000
     8  H   -0.000000  -0.000107  -0.000000  -0.000107  -0.000000   0.000000
     9  H   -0.000000   0.000007  -0.000000  -0.003910   0.000002  -0.000000
    10  C   -0.000000   0.000000   0.000000   0.254428  -0.045751   0.005825
    11  C    0.000000   0.000242   0.000026   0.335020   0.302075  -0.042212
    12  C    0.000000   0.000000   0.000000  -0.035768   0.273158  -0.048714
    13  C   -0.000000  -0.000000   0.000000  -0.082773   0.009446  -0.000112
    14  C    0.000000  -0.000000  -0.000000   0.009261  -0.087094  -0.003310
    15  C    0.000000   0.000000   0.000000   0.005311  -0.000157   0.000009
    16  H   -0.000000   0.000000   0.000000  -0.005544  -0.000094   0.000003
    17  C    0.000000   0.000000   0.000000  -0.000148   0.005483  -0.000115
    18  H    0.000000  -0.000000  -0.000000  -0.000095  -0.007532   0.004383
    19  H    0.000000   0.000000  -0.000000  -0.000100   0.000004  -0.000000
    20  H    0.000000   0.000000  -0.000000   0.000003  -0.000103  -0.000002
    21  C    0.000921   0.254427  -0.045751   0.000000   0.000000   0.000000
    22  C    0.000003   0.335018   0.302073   0.000242   0.000026   0.000016
    23  C    0.002380  -0.035767   0.273160   0.000000   0.000000   0.000000
    24  C    0.004161  -0.082775   0.009446  -0.000000   0.000000   0.000000
    25  C   -0.037314   0.009261  -0.087093  -0.000000  -0.000000   0.000000
    26  C   -0.037073   0.005311  -0.000157   0.000000   0.000000  -0.000000
    27  H   -0.000151  -0.005544  -0.000094   0.000000   0.000000   0.000000
    28  C    0.368534  -0.000148   0.005483   0.000000   0.000000   0.000000
    29  H   -0.004156  -0.000095  -0.007532  -0.000000  -0.000000  -0.000000
    30  H   -0.004819  -0.000100   0.000004   0.000000  -0.000000   0.000000
    31  H    0.539281   0.000003  -0.000103   0.000000  -0.000000  -0.000000
    32  N    0.000003   7.167993  -0.054984  -0.000036   0.000001  -0.000000
    33  N   -0.000103  -0.054984   7.050437   0.000001  -0.000000  -0.000000
    34  N    0.000000  -0.000036   0.000001   7.167992  -0.054985   0.004255
    35  N   -0.000000   0.000001  -0.000000  -0.054985   7.050442   0.302640
    36  C   -0.000000  -0.000000  -0.000000   0.004255   0.302640   5.054450
    37  H    0.000000   0.000000   0.000000  -0.000070  -0.043491   0.377385
    38  H    0.000000   0.000000   0.000000  -0.000070  -0.043494   0.377391
    39  H    0.000000  -0.000000   0.000001   0.000159  -0.032018   0.376579
    40  C   -0.000002   0.004255   0.302642  -0.000000  -0.000000   0.000000
    41  H    0.000000  -0.000070  -0.043494   0.000000   0.000000  -0.000000
    42  H    0.000000  -0.000070  -0.043491   0.000000   0.000000  -0.000000
    43  H   -0.000000   0.000159  -0.032018  -0.000000   0.000001  -0.000001
    44  Co  -0.000001  -0.075014  -0.054821  -0.075014  -0.054821  -0.003286
              37         38         39         40         41         42
     1  C   -0.000000  -0.000000  -0.000017  -0.000010  -0.000000  -0.000000
     2  C   -0.000000  -0.000000   0.000001  -0.000077   0.000004   0.000004
     3  C    0.000000   0.000000   0.000000   0.000002  -0.000000  -0.000000
     4  C    0.000000   0.000000  -0.000000  -0.000000   0.000000   0.000000
     5  C   -0.000000  -0.000000   0.000000  -0.000000   0.000000   0.000000
     6  C    0.000004   0.000004  -0.000008   0.000001  -0.000000  -0.000000
     7  H    0.000000   0.000000   0.000000  -0.000000   0.000000   0.000000
     8  H   -0.000000  -0.000000   0.000000   0.000000  -0.000000  -0.000000
     9  H    0.000000   0.000000   0.000000  -0.000000   0.000000   0.000000
    10  C   -0.000140  -0.000140   0.000020   0.000000  -0.000000  -0.000000
    11  C    0.000752   0.000747  -0.000595   0.000016  -0.000000  -0.000000
    12  C   -0.001220  -0.001216   0.002573   0.000000  -0.000000  -0.000000
    13  C   -0.000009  -0.000009   0.000006   0.000000   0.000000   0.000000
    14  C    0.002919   0.002916   0.000013   0.000000   0.000000   0.000000
    15  C   -0.000002  -0.000002  -0.000000  -0.000000  -0.000000  -0.000000
    16  H   -0.000000  -0.000000  -0.000000   0.000000   0.000000   0.000000
    17  C   -0.000009  -0.000009   0.000002   0.000000  -0.000000  -0.000000
    18  H    0.000524   0.000523  -0.000030  -0.000000  -0.000000  -0.000000
    19  H   -0.000000  -0.000000  -0.000000   0.000000  -0.000000  -0.000000
    20  H    0.000000   0.000000  -0.000000  -0.000000   0.000000   0.000000
    21  C   -0.000000  -0.000000  -0.000000   0.005825  -0.000140  -0.000140
    22  C   -0.000000  -0.000000  -0.000002  -0.042211   0.000746   0.000752
    23  C   -0.000000  -0.000000  -0.000000  -0.048714  -0.001216  -0.001221
    24  C    0.000000   0.000000  -0.000000  -0.000112  -0.000009  -0.000009
    25  C    0.000000   0.000000   0.000000  -0.003310   0.002916   0.002919
    26  C   -0.000000  -0.000000  -0.000000   0.000009  -0.000002  -0.000002
    27  H    0.000000   0.000000   0.000000   0.000003  -0.000000  -0.000000
    28  C   -0.000000  -0.000000  -0.000000  -0.000115  -0.000009  -0.000009
    29  H   -0.000000  -0.000000   0.000000   0.004383   0.000523   0.000524
    30  H   -0.000000  -0.000000   0.000000  -0.000000  -0.000000  -0.000000
    31  H    0.000000   0.000000   0.000000  -0.000002   0.000000   0.000000
    32  N    0.000000   0.000000  -0.000000   0.004255  -0.000070  -0.000070
    33  N    0.000000   0.000000   0.000001   0.302642  -0.043494  -0.043491
    34  N   -0.000070  -0.000070   0.000159  -0.000000   0.000000   0.000000
    35  N   -0.043491  -0.043494  -0.032018  -0.000000   0.000000   0.000000
    36  C    0.377385   0.377391   0.376579   0.000000  -0.000000  -0.000000
    37  H    0.527474  -0.040267  -0.026151  -0.000000  -0.000000   0.000000
    38  H   -0.040267   0.527477  -0.026160  -0.000000   0.000000  -0.000000
    39  H   -0.026151  -0.026160   0.480137  -0.000001   0.000000   0.000000
    40  C   -0.000000  -0.000000  -0.000001   5.054450   0.377391   0.377385
    41  H   -0.000000   0.000000   0.000000   0.377391   0.527479  -0.040267
    42  H    0.000000  -0.000000   0.000000   0.377385  -0.040267   0.527476
    43  H    0.000000   0.000000  -0.000023   0.376579  -0.026161  -0.026150
    44  Co   0.000974   0.000977   0.007781  -0.003286   0.000978   0.000974
              43         44
     1  C   -0.000017   0.249942
     2  C   -0.000008  -0.062344
     3  C    0.000000   0.003946
     4  C   -0.000000   0.003641
     5  C    0.000000   0.003946
     6  C    0.000001  -0.062344
     7  H    0.000000  -0.000652
     8  H    0.000000   0.000102
     9  H    0.000000  -0.000652
    10  C   -0.000000   0.008131
    11  C   -0.000002   0.386659
    12  C   -0.000000   0.004084
    13  C   -0.000000  -0.000557
    14  C    0.000000  -0.000622
    15  C   -0.000000  -0.000016
    16  H    0.000000   0.000050
    17  C   -0.000000   0.000024
    18  H    0.000000   0.000029
    19  H    0.000000   0.000015
    20  H    0.000000  -0.000001
    21  C    0.000020   0.008131
    22  C   -0.000595   0.386661
    23  C    0.002573   0.004084
    24  C    0.000006  -0.000557
    25  C    0.000013  -0.000622
    26  C   -0.000000  -0.000016
    27  H   -0.000000   0.000050
    28  C    0.000002   0.000024
    29  H   -0.000030   0.000029
    30  H   -0.000000   0.000015
    31  H   -0.000000  -0.000001
    32  N    0.000159  -0.075014
    33  N   -0.032018  -0.054821
    34  N   -0.000000  -0.075014
    35  N    0.000001  -0.054821
    36  C   -0.000001  -0.003286
    37  H    0.000000   0.000974
    38  H    0.000000   0.000977
    39  H   -0.000023   0.007781
    40  C    0.376579  -0.003286
    41  H   -0.026161   0.000978
    42  H   -0.026150   0.000974
    43  H    0.480138   0.007781
    44  Co   0.007781  16.331826
          Atomic-Atomic Spin Densities.
               1          2          3          4          5          6
     1  C   -0.415429  -0.000040   0.006421   0.010762   0.006421  -0.000039
     2  C   -0.000040   0.090578   0.002476  -0.002545   0.001112   0.000854
     3  C    0.006421   0.002476  -0.082770  -0.004730  -0.000007   0.001112
     4  C    0.010762  -0.002545  -0.004730   0.091595  -0.004731  -0.002545
     5  C    0.006421   0.001112  -0.000007  -0.004731  -0.082768   0.002476
     6  C   -0.000039   0.000854   0.001112  -0.002545   0.002476   0.090575
     7  H   -0.001241   0.000844   0.005137   0.002330  -0.000055  -0.000087
     8  H   -0.000258  -0.000007  -0.000035   0.000965  -0.000035  -0.000007
     9  H   -0.001241  -0.000087  -0.000055   0.002330   0.005137   0.000844
    10  C   -0.000391  -0.000017   0.000001   0.000021   0.000433  -0.000059
    11  C    0.005781  -0.000835   0.000007   0.000027  -0.000211  -0.007390
    12  C    0.000094   0.000000   0.000000  -0.000000  -0.000013  -0.000038
    13  C    0.000010   0.000000  -0.000000   0.000000  -0.000307  -0.000339
    14  C    0.000000   0.000000  -0.000000  -0.000000  -0.000002  -0.000021
    15  C   -0.000000   0.000000   0.000000  -0.000000   0.000003   0.000007
    16  H   -0.000001  -0.000000  -0.000000   0.000002   0.000078   0.000065
    17  C   -0.000000  -0.000000   0.000000  -0.000000   0.000000   0.000002
    18  H    0.000000  -0.000000  -0.000000   0.000000   0.000000   0.000000
    19  H    0.000000   0.000000  -0.000000   0.000000   0.000000   0.000000
    20  H   -0.000000   0.000000  -0.000000  -0.000000  -0.000000  -0.000000
    21  C   -0.000391  -0.000060   0.000433   0.000021   0.000001  -0.000017
    22  C    0.005781  -0.007391  -0.000211   0.000027   0.000007  -0.000835
    23  C    0.000094  -0.000038  -0.000013  -0.000000   0.000000   0.000000
    24  C    0.000010  -0.000339  -0.000307   0.000000  -0.000000   0.000000
    25  C    0.000000  -0.000021  -0.000002  -0.000000  -0.000000   0.000000
    26  C   -0.000000   0.000007   0.000003  -0.000000   0.000000   0.000000
    27  H   -0.000001   0.000065   0.000078   0.000002  -0.000000  -0.000000
    28  C   -0.000000   0.000002   0.000000  -0.000000   0.000000  -0.000000
    29  H    0.000000   0.000000   0.000000   0.000000  -0.000000  -0.000000
    30  H    0.000000   0.000000   0.000000   0.000000  -0.000000   0.000000
    31  H   -0.000000  -0.000000  -0.000000  -0.000000  -0.000000   0.000000
    32  N    0.001220   0.009372   0.004365   0.000143   0.000037  -0.000140
    33  N   -0.000711   0.000545  -0.000017  -0.000000  -0.000000   0.000003
    34  N    0.001220  -0.000140   0.000037   0.000143   0.004365   0.009371
    35  N   -0.000711   0.000003  -0.000000  -0.000000  -0.000017   0.000545
    36  C   -0.000018   0.000000  -0.000000  -0.000000  -0.000000  -0.000002
    37  H    0.000000  -0.000000   0.000000   0.000000  -0.000000  -0.000001
    38  H    0.000000  -0.000000   0.000000   0.000000  -0.000000  -0.000001
    39  H    0.000012  -0.000000   0.000000   0.000000   0.000000  -0.000001
    40  C   -0.000018  -0.000002  -0.000000  -0.000000  -0.000000   0.000000
    41  H    0.000000  -0.000001  -0.000000   0.000000   0.000000  -0.000000
    42  H    0.000000  -0.000001  -0.000000   0.000000   0.000000  -0.000000
    43  H    0.000012  -0.000001   0.000000   0.000000   0.000000  -0.000000
    44  Co   0.004416  -0.008885  -0.001708   0.000678  -0.001708  -0.008885
               7          8          9         10         11         12
     1  C   -0.001241  -0.000258  -0.001241  -0.000391   0.005781   0.000094
     2  C    0.000844  -0.000007  -0.000087  -0.000017  -0.000835   0.000000
     3  C    0.005137  -0.000035  -0.000055   0.000001   0.000007   0.000000
     4  C    0.002330   0.000965   0.002330   0.000021   0.000027  -0.000000
     5  C   -0.000055  -0.000035   0.005137   0.000433  -0.000211  -0.000013
     6  C   -0.000087  -0.000007   0.000844  -0.000059  -0.007390  -0.000038
     7  H   -0.010922  -0.000288  -0.000028  -0.000000   0.000000  -0.000000
     8  H   -0.000288  -0.005134  -0.000288  -0.000000   0.000000   0.000000
     9  H   -0.000028  -0.000288  -0.010922  -0.000163   0.000018   0.000002
    10  C   -0.000000  -0.000000  -0.000163   0.001768   0.002242  -0.001782
    11  C    0.000000   0.000000   0.000018   0.002242   0.232121  -0.002848
    12  C   -0.000000   0.000000   0.000002  -0.001782  -0.002848  -0.028886
    13  C    0.000000   0.000000   0.000217   0.004732   0.000218   0.000683
    14  C    0.000000   0.000000   0.000001   0.000948   0.000566  -0.001180
    15  C    0.000000   0.000000   0.000007  -0.000917  -0.000027   0.000227
    16  H   -0.000000  -0.000000  -0.000166  -0.000169   0.000000  -0.000004
    17  C   -0.000000  -0.000000  -0.000000   0.000143  -0.000010  -0.000194
    18  H   -0.000000  -0.000000  -0.000000  -0.000009  -0.000002  -0.000048
    19  H   -0.000000  -0.000000  -0.000000   0.000001   0.000000  -0.000007
    20  H    0.000000   0.000000   0.000000  -0.000003   0.000000   0.000013
    21  C   -0.000163  -0.000000  -0.000000  -0.000000   0.000001  -0.000000
    22  C    0.000018   0.000000   0.000000   0.000001   0.001890   0.000000
    23  C    0.000002   0.000000  -0.000000  -0.000000   0.000000   0.000000
    24  C    0.000217   0.000000   0.000000   0.000000   0.000000   0.000000
    25  C    0.000001   0.000000   0.000000   0.000000   0.000000   0.000000
    26  C    0.000007   0.000000   0.000000  -0.000000  -0.000000   0.000000
    27  H   -0.000166  -0.000000  -0.000000  -0.000000   0.000000  -0.000000
    28  C   -0.000000  -0.000000  -0.000000  -0.000000  -0.000000   0.000000
    29  H   -0.000000  -0.000000  -0.000000   0.000000   0.000000  -0.000000
    30  H   -0.000000  -0.000000  -0.000000  -0.000000  -0.000000   0.000000
    31  H    0.000000   0.000000   0.000000   0.000000  -0.000000  -0.000000
    32  N   -0.000692  -0.000003  -0.000002  -0.000000  -0.000051  -0.000000
    33  N    0.000003   0.000000   0.000000   0.000000  -0.000004   0.000000
    34  N   -0.000002  -0.000003  -0.000692  -0.001857  -0.027776   0.001427
    35  N    0.000000   0.000000   0.000003  -0.001429  -0.042692   0.009941
    36  C    0.000000   0.000000   0.000000  -0.000033   0.000901   0.000397
    37  H   -0.000000  -0.000000  -0.000000   0.000007   0.000496  -0.000186
    38  H   -0.000000  -0.000000  -0.000000   0.000007   0.000497  -0.000186
    39  H   -0.000000  -0.000000  -0.000000   0.000001  -0.000734  -0.000059
    40  C    0.000000   0.000000   0.000000   0.000000  -0.000000  -0.000000
    41  H   -0.000000  -0.000000  -0.000000   0.000000   0.000000  -0.000000
    42  H   -0.000000  -0.000000  -0.000000   0.000000   0.000000  -0.000000
    43  H   -0.000000  -0.000000  -0.000000  -0.000000   0.000000   0.000000
    44  Co   0.000405   0.000061   0.000405   0.001601   0.057268   0.000038
              13         14         15         16         17         18
     1  C    0.000010   0.000000  -0.000000  -0.000001  -0.000000   0.000000
     2  C    0.000000   0.000000   0.000000  -0.000000  -0.000000  -0.000000
     3  C   -0.000000  -0.000000   0.000000  -0.000000   0.000000  -0.000000
     4  C    0.000000  -0.000000  -0.000000   0.000002  -0.000000   0.000000
     5  C   -0.000307  -0.000002   0.000003   0.000078   0.000000   0.000000
     6  C   -0.000339  -0.000021   0.000007   0.000065   0.000002   0.000000
     7  H    0.000000   0.000000   0.000000  -0.000000  -0.000000  -0.000000
     8  H    0.000000   0.000000   0.000000  -0.000000  -0.000000  -0.000000
     9  H    0.000217   0.000001   0.000007  -0.000166  -0.000000  -0.000000
    10  C    0.004732   0.000948  -0.000917  -0.000169   0.000143  -0.000009
    11  C    0.000218   0.000566  -0.000027   0.000000  -0.000010  -0.000002
    12  C    0.000683  -0.001180   0.000227  -0.000004  -0.000194  -0.000048
    13  C    0.008245   0.000755  -0.007624   0.000234  -0.000792  -0.000004
    14  C    0.000755   0.050500  -0.001967  -0.000000  -0.004451   0.000028
[...]
              Bcc     0.0094     1.264     0.451     0.422  0.7749  0.6321  0.0000
 
              Baa    -0.0042    -2.223    -0.793    -0.742 -0.0158  0.3421  0.9395
    41 H(1)   Bbb    -0.0027    -1.417    -0.506    -0.473 -0.6556  0.7059 -0.2681
              Bcc     0.0068     3.640     1.299     1.214  0.7549  0.6202 -0.2132
 
              Baa    -0.0042    -2.223    -0.793    -0.741  0.0160 -0.3422  0.9395
    42 H(1)   Bbb    -0.0027    -1.417    -0.506    -0.473 -0.6556  0.7059  0.2682
              Bcc     0.0068     3.640     1.299     1.214  0.7550  0.6202  0.2131
 
              Baa    -0.0082    -4.379    -1.562    -1.461  0.0001 -0.0002  1.0000
    43 H(1)   Bbb    -0.0066    -3.543    -1.264    -1.182  0.7521 -0.6590 -0.0003
              Bcc     0.0148     7.921     2.827     2.642  0.6590  0.7521  0.0001
 
              Baa    -1.0032  -126.685   -45.204   -42.257  1.0000 -0.0000  0.0000
    44 Co(59) Bbb     0.3206    40.490    14.448    13.506  0.0000  1.0000 -0.0001
              Bcc     0.6826    86.195    30.757    28.752 -0.0000  0.0001  1.0000
 

 ---------------------------------------------------------------------------------

   1 Symmetry operations used in ECPInt.
 ECPInt:  NShTT=   11781 NPrTT=   71406 LenC2=    9532 LenP2D=   32085.
 LDataN:  DoStor=T MaxTD1= 7 Len=  274
 Calling FoFJK, ICntrl=      2127 FMM=F ISym2X=0 I1Cent= 0 IOpClX= 1 NMat=1 NMatS=1 NMatT=0.
 -------------------------------------------------------------------
 Center     Atomic                   Forces (Hartrees/Bohr)
 Number     Number              X              Y              Z
 -------------------------------------------------------------------
      1        6           0.000001518   -0.071053576   -0.000001343
      2        6           0.129785565    0.067124939    0.000001290
      3        6           0.005146190    0.012919035    0.000002720
      4        6           0.000000248    0.008054869   -0.000002109
      5        6          -0.005145529    0.012921792    0.000001597
      6        6          -0.129783615    0.067119599   -0.000000875
      7        1          -0.001061131    0.007476017   -0.000000952
      8        1           0.000000076   -0.004052200   -0.000000041
      9        1           0.001060445    0.007475314   -0.000000819
     10        6          -0.016289748   -0.015627538    0.000001059
     11        6           0.013928492    0.007099653   -0.000013697
     12        6           0.018877049    0.008736197   -0.000003747
     13        6           0.021521435    0.008792701   -0.000000975
     14        6           0.006136705    0.008410318   -0.000000201
     15        6          -0.019446347    0.012795940    0.000001985
     16        1           0.000962537   -0.000188501   -0.000000676
     17        6           0.000593050   -0.020165700    0.000000494
     18        1           0.000600456    0.000865466    0.000000438
     19        1           0.002908452    0.001063074   -0.000000483
     20        1           0.001738481   -0.000408474   -0.000000386
     21        6           0.016297704   -0.015632571   -0.000000835
     22        6          -0.013930377    0.007099759   -0.000019337
     23        6          -0.018891629    0.008733976   -0.000001861
     24        6          -0.021531453    0.008798497   -0.000000180
     25        6          -0.006123621    0.008411620   -0.000000859
     26        6           0.019454493    0.012795822    0.000000623
     27        1          -0.000962248   -0.000189448   -0.000000368
     28        6          -0.000600428   -0.020165210    0.000000351
     29        1          -0.000601625    0.000863995    0.000000185
     30        1          -0.002909935    0.001064468   -0.000000328
     31        1          -0.001735934   -0.000408162   -0.000000020
     32        7          -0.061759630   -0.106388218    0.000007002
     33        7           0.038037268    0.032746735    0.000010142
     34        7           0.061755048   -0.106383279    0.000003030
     35        7          -0.038031998    0.032740942    0.000009311
     36        6           0.001391773   -0.019360368    0.000000474
     37        1           0.000997838    0.000977898    0.001683118
     38        1           0.000995016    0.000981281   -0.001686437
     39        1           0.001409180    0.004124731    0.000001398
     40        6          -0.001393309   -0.019364141    0.000000399
     41        1          -0.000994760    0.000981300   -0.001686636
     42        1          -0.000997661    0.000977646    0.001683601
     43        1          -0.001409203    0.004125006    0.000001672
     44       27           0.000001161    0.043108795    0.000012273
 -------------------------------------------------------------------
 Cartesian Forces:  Max     0.129785565 RMS     0.026385899

 GradGradGradGradGradGradGradGradGradGradGradGradGradGradGradGradGradGrad
 Berny optimization.
 Search for a local minimum.
 Step number   1 out of a maximum of    2
 All quantities printed in internal units (Hartrees-Bohrs-Radians)
 Second derivative matrix not updated -- first step.
 ITU=  0
     Eigenvalues ---    0.00056   0.00057   0.00204   0.00252   0.00256
     Eigenvalues ---    0.00396   0.00461   0.00625   0.00679   0.00735
     Eigenvalues ---    0.00753   0.00839   0.00850   0.01341   0.01602
     Eigenvalues ---    0.01814   0.02018   0.02108   0.02558   0.02569
     Eigenvalues ---    0.03153   0.03161   0.04166   0.04275   0.04515
     Eigenvalues ---    0.04553   0.04729   0.05401   0.05574   0.06245
     Eigenvalues ---    0.06333   0.06874   0.06904   0.06992   0.07090
     Eigenvalues ---    0.07091   0.07219   0.07707   0.07765   0.09597
     Eigenvalues ---    0.10050   0.10278   0.10339   0.11612   0.11926
     Eigenvalues ---    0.11947   0.12362   0.12463   0.12914   0.13400
     Eigenvalues ---    0.13401   0.13468   0.13692   0.14855   0.15453
     Eigenvalues ---    0.15761   0.15947   0.19850   0.20348   0.20687
     Eigenvalues ---    0.20979   0.21783   0.23974   0.25074   0.28683
     Eigenvalues ---    0.29237   0.30065   0.30084   0.31262   0.32070
     Eigenvalues ---    0.32291   0.35238   0.35641   0.37356   0.38292
     Eigenvalues ---    0.38894   0.41550   0.41779   0.44431   0.48337
     Eigenvalues ---    0.48730   0.49324   0.49385   0.51039   0.52999
     Eigenvalues ---    0.54056   0.59491   0.59514   0.63604   0.69799
     Eigenvalues ---    0.69904   0.71259   0.73192   0.73393   0.88236
     Eigenvalues ---    0.88992   0.90621   0.91189   0.92093   0.94420
     Eigenvalues ---    0.95471   0.96947   0.98081   1.02597   1.10867
     Eigenvalues ---    1.15012   1.16524   1.18653   1.19463   1.23440
     Eigenvalues ---    1.28144   1.36784   1.36830   1.43524   1.47730
     Eigenvalues ---    1.50020   1.52035   1.52315   1.63377   1.65673
     Eigenvalues ---    1.67220   1.67545   1.81741   1.82297   2.11774
     Eigenvalues ---    2.12466
 Quadratic step=4.774D-01 exceeds max=3.000D-01 adjusted using Lamda=-8.340D-02.
 Angle between NR and scaled steps=  30.58 degrees.
 Angle between quadratic step and forces=  39.96 degrees.
 Linear search not attempted -- first point.
 B after Tr=     0.000000   -0.001215    0.000000
         Rot=    1.000000   -0.000000    0.000000    0.000000 Ang=  -0.00 deg.
 Variable       Old X    -DE/DX   Delta X   Delta X   Delta X     New X
                                 (Linear)    (Quad)   (Total)
    X1        0.00000   0.00000   0.00000   0.00000   0.00000   0.00000
    Y1        1.56018  -0.07105   0.00000  -0.13046  -0.13168   1.42850
    Z1        0.00020  -0.00000   0.00000  -0.00000  -0.00000   0.00020
    X2       -2.51483   0.12979   0.00000   0.12345   0.12345  -2.39138
    Y2        2.54941   0.06712   0.00000  -0.00350  -0.00471   2.54470
    Z2        0.00009   0.00000   0.00000   0.00000   0.00000   0.00009
    X3       -2.39377   0.00515   0.00000   0.04504   0.04504  -2.34873
    Y3        5.17172   0.01292   0.00000   0.02852   0.02731   5.19903
    Z3       -0.00002   0.00000   0.00000   0.00001   0.00001  -0.00001
    X4        0.00000   0.00000   0.00000   0.00000   0.00000   0.00000
    Y4        6.35823   0.00805   0.00000   0.05811   0.05690   6.41513
    Z4        0.00003  -0.00000   0.00000  -0.00001  -0.00000   0.00002
    X5        2.39378  -0.00515   0.00000  -0.04504  -0.04504   2.34873
    Y5        5.17172   0.01292   0.00000   0.02853   0.02731   5.19903
    Z5        0.00008   0.00000   0.00000   0.00000   0.00000   0.00008
    X6        2.51483  -0.12978   0.00000  -0.12345  -0.12345   2.39139
    Y6        2.54941   0.06712   0.00000  -0.00350  -0.00471   2.54470
    Z6        0.00016  -0.00000   0.00000  -0.00000  -0.00000   0.00016
    X7       -4.09811  -0.00106   0.00000   0.02497   0.02497  -4.07314
    Y7        6.29240   0.00748   0.00000   0.02609   0.02487   6.31727
    Z7       -0.00009  -0.00000   0.00000  -0.00000   0.00000  -0.00008
    X8        0.00000   0.00000   0.00000   0.00000   0.00000   0.00000
    Y8        8.42439  -0.00405   0.00000   0.03743   0.03621   8.46060
    Z8       -0.00002  -0.00000   0.00000  -0.00001  -0.00001  -0.00003
    X9        4.09812   0.00106   0.00000  -0.02497  -0.02497   4.07315
    Y9        6.29240   0.00748   0.00000   0.02609   0.02487   6.31727
    Z9        0.00009  -0.00000   0.00000  -0.00000  -0.00000   0.00009
   X10        6.96943  -0.01629   0.00000  -0.01887  -0.01887   6.95056
   Y10        1.12049  -0.01563   0.00000  -0.02510  -0.02631   1.09417
   Z10       -0.00004   0.00000   0.00000   0.00000   0.00000  -0.00003
   X11        3.58443   0.01393   0.00000  -0.01199  -0.01199   3.57244
   Y11       -1.71269   0.00710   0.00000  -0.00270  -0.00392  -1.71660
   Z11        0.00019  -0.00001   0.00000  -0.00002  -0.00002   0.00017
   X12        7.87290   0.01888   0.00000   0.01127   0.01127   7.88417
   Y12       -1.40622   0.00874   0.00000   0.00688   0.00566  -1.40056
   Z12       -0.00015  -0.00000   0.00000  -0.00000  -0.00000  -0.00015
   X13        8.56782   0.02152   0.00000   0.00143   0.00143   8.56926
   Y13        3.14684   0.00879   0.00000  -0.00007  -0.00128   3.14556
   Z13       -0.00011  -0.00000   0.00000   0.00000   0.00000  -0.00011
   X14       10.44398   0.00614   0.00000   0.01170   0.01170  10.45568
   Y14       -1.89387   0.00841   0.00000   0.00640   0.00519  -1.88869
   Z14       -0.00036  -0.00000   0.00000  -0.00000  -0.00000  -0.00036
   X15       11.19727  -0.01945   0.00000  -0.01855  -0.01855  11.17872
   Y15        2.64580   0.01280   0.00000   0.00665   0.00544   2.65123
   Z15       -0.00032   0.00000   0.00000   0.00000   0.00000  -0.00032
   X16        7.86758   0.00096   0.00000   0.00574   0.00574   7.87332
   Y16        5.07068  -0.00019   0.00000   0.00050  -0.00071   5.06997
   Z16        0.00002  -0.00000   0.00000  -0.00001  -0.00000   0.00002
   X17       12.09118   0.00059   0.00000   0.00257   0.00257  12.09375
   Y17        0.20630  -0.02017   0.00000  -0.01244  -0.01365   0.19265
   Z17       -0.00046   0.00000   0.00000   0.00000   0.00000  -0.00046
   X18       11.16132   0.00060   0.00000   0.00920   0.00920  11.17052
   Y18       -3.81704   0.00087   0.00000   0.00667   0.00545  -3.81158
   Z18       -0.00046   0.00000   0.00000   0.00000   0.00000  -0.00046
   X19       12.48285   0.00291   0.00000  -0.00116  -0.00116  12.48169
   Y19        4.23530   0.00106   0.00000   0.00202   0.00081   4.23611
   Z19       -0.00037  -0.00000   0.00000  -0.00000  -0.00000  -0.00037
   X20       14.11119   0.00174   0.00000   0.00693   0.00693  14.11812
   Y20       -0.13221  -0.00041   0.00000  -0.00560  -0.00681  -0.13902
   Z20       -0.00062  -0.00000   0.00000  -0.00000  -0.00000  -0.00062
   X21       -6.96943   0.01630   0.00000   0.01888   0.01888  -6.95056
   Y21        1.12048  -0.01563   0.00000  -0.02510  -0.02632   1.09416
   Z21       -0.00007  -0.00000   0.00000   0.00000   0.00000  -0.00006
   X22       -3.58441  -0.01393   0.00000   0.01199   0.01199  -3.57242
   Y22       -1.71269   0.00710   0.00000  -0.00270  -0.00392  -1.71661
   Z22        0.00017  -0.00002   0.00000  -0.00003  -0.00003   0.00014
   X23       -7.87288  -0.01889   0.00000  -0.01128  -0.01128  -7.88416
   Y23       -1.40623   0.00873   0.00000   0.00688   0.00566  -1.40057
   Z23       -0.00011  -0.00000   0.00000   0.00000   0.00000  -0.00011
   X24       -8.56781  -0.02153   0.00000  -0.00144  -0.00144  -8.56925
   Y24        3.14682   0.00880   0.00000  -0.00006  -0.00128   3.14554
   Z24       -0.00011  -0.00000   0.00000   0.00000   0.00000  -0.00010
   X25      -10.44398  -0.00612   0.00000  -0.01169  -0.01169 -10.45567
   Y25       -1.89389   0.00841   0.00000   0.00640   0.00519  -1.88870
   Z25       -0.00018  -0.00000   0.00000  -0.00000  -0.00000  -0.00019
   X26      -11.19727   0.01945   0.00000   0.01856   0.01856 -11.17871
   Y26        2.64578   0.01280   0.00000   0.00665   0.00544   2.65122
   Z26       -0.00019   0.00000   0.00000  -0.00000   0.00000  -0.00019
   X27       -7.86758  -0.00096   0.00000  -0.00574  -0.00574  -7.87332
   Y27        5.07067  -0.00019   0.00000   0.00050  -0.00071   5.06996
   Z27       -0.00004  -0.00000   0.00000  -0.00000  -0.00000  -0.00005
   X28      -12.09117  -0.00060   0.00000  -0.00257  -0.00257 -12.09374
   Y28        0.20628  -0.02017   0.00000  -0.01244  -0.01365   0.19263
   Z28       -0.00023   0.00000   0.00000   0.00000   0.00000  -0.00023
   X29      -11.16130  -0.00060   0.00000  -0.00920  -0.00920 -11.17050
   Y29       -3.81705   0.00086   0.00000   0.00667   0.00545  -3.81160
   Z29       -0.00020   0.00000   0.00000   0.00000   0.00000  -0.00020
   X30      -12.48285  -0.00291   0.00000   0.00116   0.00116 -12.48169
   Y30        4.23529   0.00106   0.00000   0.00203   0.00081   4.23610
   Z30       -0.00020  -0.00000   0.00000  -0.00000  -0.00000  -0.00020
   X31      -14.11119  -0.00174   0.00000  -0.00693  -0.00693 -14.11811
   Y31       -0.13223  -0.00041   0.00000  -0.00560  -0.00681  -0.13904
   Z31       -0.00029  -0.00000   0.00000   0.00000   0.00000  -0.00029
   X32       -4.34816  -0.06176   0.00000   0.01727   0.01727  -4.33089
   Y32        0.94780  -0.10639   0.00000  -0.08291  -0.08412   0.86367
   Z32        0.00002   0.00001   0.00000   0.00001   0.00001   0.00003
   X33       -5.88097   0.03804   0.00000   0.03938   0.03938  -5.84159
   Y33       -3.04022   0.03275   0.00000   0.03248   0.03126  -3.00896
   Z33       -0.00009   0.00001   0.00000   0.00002   0.00001  -0.00007
   X34        4.34817   0.06176   0.00000  -0.01728  -0.01728   4.33089
   Y34        0.94779  -0.10638   0.00000  -0.08290  -0.08412   0.86367
   Z34        0.00014   0.00000   0.00000   0.00000   0.00000   0.00014
   X35        5.88098  -0.03803   0.00000  -0.03938  -0.03938   5.84160
   Y35       -3.04021   0.03274   0.00000   0.03247   0.03126  -3.00895
   Z35       -0.00008   0.00001   0.00000   0.00001   0.00001  -0.00007
   X36        6.02806   0.00139   0.00000  -0.00813  -0.00813   6.01993
   Y36       -5.70694  -0.01936   0.00000  -0.00152  -0.00273  -5.70967
   Z36        0.00002   0.00000   0.00000  -0.00000  -0.00000   0.00001
   X37        7.00326   0.00100   0.00000   0.00385   0.00385   7.00711
   Y37       -6.41369   0.00098   0.00000   0.00788   0.00666  -6.40703
   Z37       -1.69237   0.00168   0.00000   0.00583   0.00583  -1.68653
   X38        7.00244   0.00100   0.00000   0.00384   0.00384   7.00628
   Y38       -6.41373   0.00098   0.00000   0.00789   0.00667  -6.40705
   Z38        1.69288  -0.00169   0.00000  -0.00584  -0.00584   1.68704
   X39        4.12096   0.00141   0.00000  -0.00493  -0.00493   4.11602
   Y39       -6.51730   0.00412   0.00000   0.01269   0.01147  -6.50583
   Z39       -0.00049   0.00000   0.00000   0.00001   0.00000  -0.00049
   X40       -6.02804  -0.00139   0.00000   0.00813   0.00813  -6.01991
   Y40       -5.70695  -0.01936   0.00000  -0.00152  -0.00273  -5.70968
   Z40        0.00009   0.00000   0.00000  -0.00000  -0.00000   0.00009
   X41       -7.00231  -0.00099   0.00000  -0.00384  -0.00384  -7.00615
   Y41       -6.41370   0.00098   0.00000   0.00789   0.00667  -6.40703
   Z41        1.69303  -0.00169   0.00000  -0.00583  -0.00584   1.68720
   X42       -7.00335  -0.00100   0.00000  -0.00385  -0.00385  -7.00721
   Y42       -6.41373   0.00098   0.00000   0.00788   0.00666  -6.40707
   Z42       -1.69221   0.00168   0.00000   0.00584   0.00583  -1.68638
   X43       -4.12094  -0.00141   0.00000   0.00493   0.00493  -4.11600
   Y43       -6.51731   0.00413   0.00000   0.01269   0.01147  -6.50583
   Z43       -0.00054   0.00000   0.00000   0.00001   0.00000  -0.00054
   X44        0.00000   0.00000   0.00000   0.00000   0.00000   0.00000
   Y44       -2.33607   0.04311   0.00000   0.06670   0.06549  -2.27058
   Z44        0.00009   0.00001   0.00000   0.00000   0.00000   0.00009
         Item               Value     Threshold  Converged?
 Maximum Force            0.129786     0.000450     NO 
 RMS     Force            0.026386     0.000300     NO 
 Maximum Displacement     0.131676     0.001800     NO 
 RMS     Displacement     0.026120     0.001200     NO 
 Predicted change in Energy=-3.863569D-02
 GradGradGradGradGradGradGradGradGradGradGradGradGradGradGradGradGradGrad

 Unable to Open any file for archive entry.
 1\1\GINC-X11P1N5\Force\UPBE1PBE\GenECP\C22H17Co1N4(3)\MAYUMIAO\17-Jul-
 2024\0\\# pbe1pbe em=gd3bj genecp g09default scf=(xqc,maxcycle=64) for
 ce guess=read nosymm\\Title Card\\0,3\C,0.00000009,0.82560966,0.000105
 83\C,-1.33079113,1.3490889,0.00004663\C,-1.26672952,2.73675715,-0.0000
 0981\C,0.0000004,3.36463184,0.00001418\C,1.26673156,2.7367556,0.000042
 06\C,1.33079266,1.34909055,0.00008536\H,-2.16862757,3.32979306,-0.0000
 4506\H,0.00000048,4.45799574,-0.00001136\H,2.16862925,3.32979454,0.000
 04761\C,3.68806531,0.59293523,-0.0000201\C,1.89679664,-0.9063147,0.000
 10136\C,4.1661598,-0.74414023,-0.00007761\C,4.53389686,1.66523611,-0.0
 0005756\C,5.52671637,-1.00219344,-0.00019256\C,5.92533874,1.40009509,-
 0.00017185\H,4.16334533,2.68328904,0.00001072\C,6.39837704,0.10916849,
 -0.00024409\H,5.90631667,-2.01988805,-0.00024519\H,6.60564071,2.241226
 73,-0.00019417\H,7.46732141,-0.06996153,-0.00032775\C,-3.68806437,0.59
 293264,-0.0000353\C,-1.89678837,-0.90631639,0.00009186\C,-4.1661474,-0
 .74414541,-0.00006068\C,-4.53389092,1.6652274,-0.00005596\C,-5.5267149
 8,-1.00220121,-0.00009721\C,-5.92534051,1.40008707,-0.00010017\H,-4.16
 334522,2.68328368,-0.00002305\C,-6.39836957,0.10915926,-0.00012383\H,-
 5.90630809,-2.01989556,-0.0001056\H,-6.60563936,2.24121712,-0.00010632
 \H,-7.46731793,-0.06997214,-0.00015346\N,-2.30094773,0.5015527,0.00001
 058\N,-3.11207422,-1.60881752,-0.0000471\N,2.30095247,0.50155057,0.000
 07156\N,3.11207876,-1.6088105,-0.0000413\C,3.18991298,-3.01998437,0.00
 00087\H,3.70596426,-3.3939786,-0.89556108\H,3.70553211,-3.39399769,0.8
 9583296\H,2.18071705,-3.44880818,-0.00026036\C,-3.18990247,-3.01998618
 ,0.00004651\H,-3.70546054,-3.39398362,0.8959141\H,-3.70601493,-3.39400
 062,-0.89548024\H,-2.18070634,-3.44881001,-0.00028757\Co,0.00000008,-1
 .23619508,0.00004627\\Version=ES64L-G16RevC.01\HF=-1212.0796964\S2=2.3
 01466\S2-1=0.\S2A=2.008834\RMSD=2.601e-09\RMSF=2.639e-02\Dipole=0.0000
 804,-1.4534091,-0.0000299\Quadrupole=8.8465656,10.2311168,-19.0776824,
 -0.0001244,-0.0002858,0.0000655\PG=C01 [X(C22H17Co1N4)]\\@
 The archive entry for this job was punched.


 THE SECRET OF SUCCESS IN LIFE IS TO EAT WHAT YOU LIKE, AND LET THE FOOD
 FIGHT IT OUT INSIDE YOU. -- FROM A FORTUNE COOKIE
 Job cpu time:       0 days  0 hours 49 minutes  9.1 seconds.
 Elapsed time:       0 days  0 hours  0 minutes 53.6 seconds.
 File lengths (MBytes):  RWF=    184 Int=      0 D2E=      0 Chk=     72 Scr=      1
 Normal termination of Gaussian 16 at Wed Jul 17 20:46:21 2024.
