 Entering Gaussian System, Link 0=g16
 Input=JOBS/pre_A.gjf
 Output=JOBS/pre_A.log
 Initial command:
 /data/app/gaussian/C01-avx2//g16/l1.exe "/tmp/Gau-2030831.inp" -scrdir="/tmp/"
 Entering Link 1 = /data/app/gaussian/C01-avx2//g16/l1.exe PID=   2030832.
  
 Copyright (c) 1988-2019, Gaussian, Inc.  All Rights Reserved.
  
 This is part of the Gaussian(R) 16 program.  It is based on
 the Gaussian(R) 09 system (copyright 2009, Gaussian, Inc.),
 the Gaussian(R) 03 system (copyright 2003, Gaussian, Inc.),
 the Gaussian(R) 98 system (copyright 1998, Gaussian, Inc.),
 the Gaussian(R) 94 system (copyright 1995, Gaussian, Inc.),
 the Gaussian 92(TM) system (copyright 1992, Gaussian, Inc.),
 the Gaussian 90(TM) system (copyright 1990, Gaussian, Inc.),
 the Gaussian 88(TM) system (copyright 1988, Gaussian, Inc.),
 the Gaussian 86(TM) system (copyright 1986, Carnegie Mellon
 University), and the Gaussian 82(TM) system (copyright 1983,
 Carnegie Mellon University). Gaussian is a federally registered
 trademark of Gaussian, Inc.
  
 This software contains proprietary and confidential information,
 including trade secrets, belonging to Gaussian, Inc.
  
 This software is provided under written license and may be
 used, copied, transmitted, or stored only in accord with that
 written license.
  
 The following legend is applicable only to US Government
 contracts under FAR:
  
                    RESTRICTED RIGHTS LEGEND
  
 Use, reproduction and disclosure by the US Government is
 subject to restrictions as set forth in subparagraphs (a)
 and (c) of the Commercial Computer Software - Restricted
 Rights clause in FAR 52.227-19.
  
 Gaussian, Inc.
 340 Quinnipiac St., Bldg. 40, Wallingford CT 06492
  
  
 ---------------------------------------------------------------
 Warning -- This program may not be used in any manner that
 competes with the business of Gaussian, Inc. or will provide
 assistance to any competitor of Gaussian, Inc.  The licensee
 of this program is prohibited from giving any competitor of
 Gaussian, Inc. access to this program.  By using this program,
 the user acknowledges that Gaussian, Inc. is engaged in the
 business of creating and licensing software in the field of
 computational chemistry and represents and warrants to the
 licensee that it is not a competitor of Gaussian, Inc. and that
 it will not use this program in any manner prohibited above.
 ---------------------------------------------------------------
  

 Cite this work as:
 Gaussian 16, Revision C.01,
 M. J. Frisch, G. W. Trucks, H. B. Schlegel, G. E. Scuseria, 
 M. A. Robb, J. R. Cheeseman, G. Scalmani, V. Barone, 
 G. A. Petersson, H. Nakatsuji, X. Li, M. Caricato, A. V. Marenich, 
 J. Bloino, B. G. Janesko, R. Gomperts, B. Mennucci, H. P. Hratchian, 
 J. V. Ortiz, A. F. Izmaylov, J. L. Sonnenberg, D. Williams-Young, 
 F. Ding, F. Lipparini, F. Egidi, J. Goings, B. Peng, A. Petrone, 
 T. Henderson, D. Ranasinghe, V. G. Zakrzewski, J. Gao, N. Rega, 
 G. Zheng, W. Liang, M. Hada, M. Ehara, K. Toyota, R. Fukuda, 
 J. Hasegawa, M. Ishida, T. Nakajima, Y. Honda, O. Kitao, H. Nakai, 
 T. Vreven, K. Throssell, J. A. Montgomery, Jr., J. E. Peralta, 
 F. Ogliaro, M. J. Bearpark, J. J. Heyd, E. N. Brothers, K. N. Kudin, 
 V. N. Staroverov, T. A. Keith, R. Kobayashi, J. Normand, 
 K. Raghavachari, A. P. Rendell, J. C. Burant, S. S. Iyengar, 
 J. Tomasi, M. Cossi, J. M. Millam, M. Klene, C. Adamo, R. Cammi, 
 J. W. Ochterski, R. L. Martin, K. Morokuma, O. Farkas, 
 J. B. Foresman, and D. J. Fox, Gaussian, Inc., Wallingford CT, 2019.
 
 ******************************************
 Gaussian 16:  ES64L-G16RevC.01  3-Jul-2019
                17-Jul-2024 
 ******************************************
 %chk=a.chk
 %nprocshared=56
 Will use up to   56 processors via shared memory.
 %mem=96gb
 ----------------------------------------------------------------------
 # pbe1pbe em=gd3bj genecp g09default scf=(xqc,maxcycle=64) stable=opt 
 nosymm
 ----------------------------------------------------------------------
 1/38=1,158=3,167=1,172=1/1;
 2/12=2,15=1,17=6,18=5,40=1/2;
 3/5=7,11=2,16=1,17=8,25=1,27=10,30=1,74=-13,75=-4,124=41,158=3/1,2,3;
 4/60=-1/1;
 5/5=2,7=64,8=3,13=1,38=5,87=10/2,8;
 6/7=2,8=2,9=2,10=2,28=1,87=10/1;
 8/6=1,10=90,11=11,87=10/1;
 9/8=-3,42=1,46=1,87=10/14;
 5/5=2,7=64,8=3,17=40,38=5,87=10/8(-2);
 6/7=2,8=2,9=2,10=2,28=1,87=10/1;
 99/5=1,9=1/99;
 Using 2006 physical constants.
 ----------
 Title Card
 ----------
 Symbolic Z-matrix:
 Charge =  0 Multiplicity = 1
 6                     0.        0.68002   0.00008 
 6                    -1.21642   1.35695   0.00004 
 6                    -1.23155   2.74852  0. 
 6                     0.        3.41606   0.00001 
 6                     1.23155   2.74852   0.00005 
 6                     1.21642   1.35695   0.00008 
 1                    -2.15134   3.32213  -0.00005 
 1                     0.        4.50227  -0.00001 
 1                     2.15135   3.32213   0.00005 
 6                     3.65788   0.57587  -0.00002 
 6                     1.89077  -0.89659   0.00009 
 6                     4.16297  -0.73958  -0.0001 
 6                     4.52276   1.66379  -0.00005 
 6                     5.52664  -1.00168  -0.00021 
 6                     5.89458   1.40053  -0.00017 
 1                     4.15899   2.68378   0.00001 
 6                     6.38934   0.09557  -0.00024 
 1                     5.90709  -2.01846  -0.00025 
 1                     6.58948   2.23496  -0.0002 
 1                     7.46232  -0.07111  -0.00032 
 6                    -3.65788   0.57586  -0.00003 
 6                    -1.89076  -0.89659   0.00003 
 6                    -4.16297  -0.73959  -0.00006 
 6                    -4.52276   1.66378  -0.00005 
 6                    -5.52663  -1.00169  -0.0001 
 6                    -5.89458   1.40052  -0.0001 
 1                    -4.15899   2.68378  -0.00002 
 6                    -6.38934   0.09556  -0.00012 
 1                    -5.90708  -2.01847  -0.00011 
 1                    -6.58948   2.23495  -0.00011 
 1                    -7.46231  -0.07112  -0.00015 
 7                    -2.28067   0.44557   0.00001 
 7                    -3.07258  -1.59016  -0.00004 
 7                     2.28067   0.44557   0.00009 
 7                     3.07258  -1.59016  -0.00005 
 6                     3.17355  -3.02305   0. 
 1                     3.70349  -3.3762   -0.89208 
 1                     3.70307  -3.37619   0.89234 
 1                     2.16568  -3.44211  -0.00024 
 6                    -3.17354  -3.02306   0.00004 
 1                    -3.703    -3.37619   0.89242 
 1                    -3.70354  -3.37621  -0.892 
 1                    -2.16567  -3.44211  -0.00027 
 27                    0.       -1.16925   0.00013 
 
                          Input orientation:                          
 ---------------------------------------------------------------------
 Center     Atomic      Atomic             Coordinates (Angstroms)
 Number     Number       Type             X           Y           Z
 ---------------------------------------------------------------------
      1          6           0        0.000002    0.680015    0.000082
      2          6           0       -1.216419    1.356950    0.000036
      3          6           0       -1.231548    2.748520   -0.000001
      4          6           0        0.000001    3.416063    0.000013
      5          6           0        1.231550    2.748521    0.000051
      6          6           0        1.216422    1.356951    0.000080
      7          1           0       -2.151343    3.322127   -0.000045
      8          1           0        0.000001    4.502271   -0.000011
      9          1           0        2.151345    3.322128    0.000051
     10          6           0        3.657878    0.575868   -0.000020
     11          6           0        1.890767   -0.896589    0.000090
     12          6           0        4.162974   -0.739580   -0.000102
     13          6           0        4.522762    1.663789   -0.000051
     14          6           0        5.526638   -1.001681   -0.000206
     15          6           0        5.894577    1.400531   -0.000168
     16          1           0        4.158989    2.683783    0.000014
     17          6           0        6.389343    0.095571   -0.000241
     18          1           0        5.907085   -2.018465   -0.000251
     19          1           0        6.589482    2.234959   -0.000196
     20          1           0        7.462317   -0.071107   -0.000322
     21          6           0       -3.657875    0.575864   -0.000031
     22          6           0       -1.890761   -0.896590    0.000034
     23          6           0       -4.162968   -0.739585   -0.000064
     24          6           0       -4.522760    1.663783   -0.000049
     25          6           0       -5.526632   -1.001689   -0.000104
     26          6           0       -5.894575    1.400523   -0.000096
     27          1           0       -4.158989    2.683778   -0.000021
     28          6           0       -6.389338    0.095562   -0.000121
     29          1           0       -5.907078   -2.018473   -0.000111
     30          1           0       -6.589481    2.234949   -0.000109
     31          1           0       -7.462313   -0.071118   -0.000150
     32          7           0       -2.280669    0.445569    0.000011
     33          7           0       -3.072576   -1.590161   -0.000037
     34          7           0        2.280672    0.445570    0.000092
     35          7           0        3.072583   -1.590157   -0.000047
     36          6           0        3.173546   -3.023055    0.000003
     37          1           0        3.703487   -3.376196   -0.892080
     38          1           0        3.703069   -3.376194    0.892338
     39          1           0        2.165681   -3.442111   -0.000241
     40          6           0       -3.173536   -3.023058    0.000041
     41          1           0       -3.702998   -3.376187    0.892417
     42          1           0       -3.703537   -3.376213   -0.892001
     43          1           0       -2.165671   -3.442113   -0.000268
     44         27           0        0.000002   -1.169246    0.000131
 ---------------------------------------------------------------------
                    Distance matrix (angstroms):
                    1          2          3          4          5
     1  C    0.000000
     2  C    1.392092   0.000000
     3  C    2.407370   1.391652   0.000000
     4  C    2.736048   2.391574   1.400831   0.000000
     5  C    2.407369   2.815852   2.463098   1.400830   0.000000
     6  C    1.392092   2.432841   2.815852   2.391573   1.391652
     7  H    3.407204   2.176236   1.083996   2.153394   3.431179
     8  H    3.822256   3.372347   2.142978   1.086208   2.142977
     9  H    3.407204   3.899200   3.431179   2.153394   1.083996
    10  C    3.659358   4.936483   5.350412   4.631066   3.256914
    11  C    2.461843   3.838365   4.799549   4.708924   3.704240
    12  C    4.398362   5.773500   6.423995   5.882152   4.556325
    13  C    4.628517   5.747378   5.855658   4.850343   3.465360
    14  C    5.776834   7.143666   7.728977   7.075322   5.701912
    15  C    5.938447   7.111130   7.252498   6.229638   4.853957
    16  H    4.616520   5.536741   5.390926   4.222963   2.928155
    17  C    6.416015   7.709649   8.069456   7.200650   5.800084
    18  H    6.494261   7.882749   8.583952   8.026689   6.677184
    19  H    6.770458   7.855125   7.837873   6.694495   5.382488
    20  H    7.500022   8.795442   9.139671   8.236900   6.839061
    21  C    3.659359   2.563358   3.256915   4.631068   5.350413
    22  C    2.461842   2.352271   3.704239   4.708923   4.799548
    23  C    4.398361   3.616298   4.556325   5.882153   6.423995
    24  C    4.628518   3.320548   3.465362   4.850346   5.855659
    25  C    5.776834   4.913361   5.701913   7.075324   7.728978
    26  C    5.938448   4.678359   4.853959   6.229641   7.252500
    27  H    4.616522   3.227877   2.928157   4.222966   5.390928
    28  C    6.416015   5.324490   5.800085   7.200651   8.069456
    29  H    6.494261   5.778907   6.677185   8.026691   8.583953
    30  H    6.770458   5.444325   5.382490   6.694498   7.837875
    31  H    7.500023   6.407072   6.839064   8.236902   9.139673
    32  N    2.292689   1.401158   2.530660   3.745035   4.199913
    33  N    3.820266   3.482927   4.713124   5.873926   6.111437
    34  N    2.292688   3.613898   4.199913   3.745035   2.530660
    35  N    3.820266   5.203939   6.111437   5.873925   4.713123
    36  C    4.876895   6.201309   7.260574   7.178693   6.089535
    37  H    5.564585   6.885058   7.915966   7.787581   6.664723
    38  H    5.564320   6.884782   7.915733   7.787407   6.664587
    39  H    4.656403   5.871081   7.061521   7.191990   6.260713
    40  C    4.876894   4.797372   6.089534   7.178692   7.260572
    41  H    5.564283   5.420517   6.664571   7.787377   7.915689
    42  H    5.564620   5.420730   6.664739   7.787612   7.916010
    43  H    4.656402   4.892043   6.260713   7.191990   7.061520
    44  Co   1.849261   2.803809   4.106776   4.585309   4.106776
                    6          7          8          9         10
     6  C    0.000000
     7  H    3.899200   0.000000
     8  H    3.372346   2.453777   0.000000
     9  H    2.176236   4.302688   2.453776   0.000000
    10  C    2.563357   6.425651   5.366256   3.132345   0.000000
    11  C    2.352272   5.842621   5.720375   4.226757   2.300176
    12  C    3.616298   7.507867   6.693829   4.532563   1.409087
    13  C    3.320547   6.877046   5.339695   2.893736   1.389819
    14  C    4.913360   8.811737   7.799821   5.485246   2.445593
    15  C    4.678358   8.272204   6.660842   4.207650   2.383882
    16  H    3.227876   6.342537   4.539172   2.106684   2.166661
    17  C    5.324490   9.129840   7.761617   5.326471   2.773371
    18  H    5.778906   9.667481   8.798502   6.528975   3.433584
    19  H    5.444325   8.808176   6.968641   4.569354   3.368514
    20  H    6.407071  10.194925   8.752254   6.302418   3.859059
    21  C    4.936483   3.132347   5.366258   6.425652   7.315753
    22  C    3.838363   4.226757   5.720374   5.842619   5.740690
    23  C    5.773500   4.532564   6.693830   7.507867   7.930703
    24  C    5.747378   2.893739   5.339699   6.877048   8.252660
    25  C    7.143666   5.485249   7.799824   8.811738   9.319008
    26  C    7.111130   4.207653   6.660846   8.272206   9.587983
    27  H    5.536742   2.106687   4.539176   6.342539   8.096091
    28  C    7.709649   5.326474   7.761619   9.129841  10.058690
    29  H    7.882749   6.528978   8.798505   9.667482   9.910549
    30  H    7.855126   4.569357   6.968646   8.808178  10.380796
    31  H    8.795443   6.302421   8.752258  10.194927  11.138996
    32  N    3.613899   2.879464   4.653846   5.283686   5.939976
    33  N    5.203938   4.997924   6.823376   7.170769   7.070410
    34  N    1.401158   5.283686   4.653846   2.879464   1.383356
    35  N    3.482927   7.170770   6.823374   4.997922   2.243710
    36  C    4.797373   8.283464   8.167124   6.426993   3.631367
    37  H    5.420712   8.941045   8.751105   6.933440   4.051748
    38  H    5.420535   8.940805   8.750955   6.933364   4.051807
    39  H    4.892043   8.024438   8.234280   6.764254   4.286118
    40  C    6.201307   6.426994   8.167124   8.283462   7.721430
    41  H    6.884733   6.933364   8.750927   8.940753   8.402242
    42  H    6.885103   6.933444   8.751134   8.941095   8.402678
    43  H    5.871079   6.764255   8.234280   8.024437   7.075160
    44  Co   2.803810   4.980032   5.671517   4.980032   4.052836
                   11         12         13         14         15
    11  C    0.000000
    12  C    2.277625   0.000000
    13  C    3.671911   2.430150   0.000000
    14  C    3.637389   1.388624   2.848245   0.000000
    15  C    4.615978   2.752912   1.396847   2.430227   0.000000
    16  H    4.238384   3.423365   1.082921   3.931044   2.158472
    17  C    4.606687   2.377855   2.437916   1.395787   1.395605
    18  H    4.170062   2.162746   3.933871   1.085629   3.419019
    19  H    5.646638   3.838727   2.144194   3.406681   1.085893
    20  H    5.632370   3.366381   3.413334   2.147748   2.150239
    21  C    5.740692   7.930704   8.252660   9.319009   9.587983
    22  C    3.781528   6.055771   6.905709   7.418143   8.117158
    23  C    6.055771   8.325942   9.012109   9.693150  10.282719
    24  C    6.905710   9.012110   9.045522  10.396879  10.420663
    25  C    7.418144   9.693150  10.396879  11.053270  11.671104
    26  C    8.117159  10.282720  10.420663  11.671105  11.789152
    27  H    7.029835   8.998580   8.741463  10.363107  10.135133
    28  C    8.339335  10.585308  11.024213  11.966387  12.353037
    29  H    7.878135  10.150937  11.060769  11.478838  12.286930
    30  H    9.039974  11.156304  11.126912  12.540977  12.511913
    31  H    9.389436  11.644490  12.109993  13.022242  13.437718
    32  N    4.382039   6.551726   6.911638   7.940313   8.230832
    33  N    5.011568   7.285374   8.263011   8.619327   9.452728
    34  N    1.397647   2.224329   2.551671   3.553988   3.737949
    35  N    1.370301   1.382908   3.562469   2.523626   4.111917
    36  C    2.483421   2.488619   4.877181   3.102095   5.193469
    37  H    3.198495   2.821081   5.183471   3.123722   5.330432
    38  H    3.198279   2.821293   5.183598   3.124156   5.330701
    39  H    2.560324   3.360484   5.623704   4.153520   6.111943
    40  C    5.492635   7.683661   9.011079   8.931909  10.089540
    41  H    6.183434   8.343968   9.688188   9.571898  10.757657
    42  H    6.183898   8.344418   9.688611   9.572347  10.758087
    43  H    4.788985   6.881528   8.414593   8.070150   9.403127
    44  Co   1.910323   4.185086   5.336801   5.529176   6.430379
                   16         17         18         19         20
    16  H    0.000000
    17  C    3.416624   0.000000
    18  H    5.016670   2.168345   0.000000
    19  H    2.471586   2.148729   4.307816   0.000000
    20  H    4.301325   1.085843   2.492178   2.465721   0.000000
    21  C    8.096091  10.058691   9.910550  10.380796  11.138996
    22  C    7.029833   8.339335   7.878135   9.039973   9.389435
    23  C    8.998579  10.585308  10.150936  11.156303  11.644489
    24  C    8.741462  11.024213  11.060769  11.126912  12.109992
    25  C   10.363106  11.966388  11.478838  12.540977  13.022242
    26  C   10.135132  12.353038  12.286930  12.511913  13.437718
    27  H    8.317978  10.861221  11.110218  10.757837  11.943372
    28  C   10.861220  12.778681  12.476824  13.153965  13.852658
    29  H   11.110217  12.476825  11.814163  13.200595  13.510476
    30  H   10.757837  13.153966  13.200594  13.178963  14.239765
    31  H   11.943372  13.852659  13.510476  14.239766  14.924630
    32  N    6.817536   8.677074   8.550484   9.048839   9.756676
    33  N    8.400127   9.610911   8.989870  10.391675  10.643848
    34  N    2.921930   4.123551   4.384329   4.665593   5.207341
    35  N    4.409857   3.720561   2.866679   5.196161   4.645135
    36  C    5.791295   4.479640   2.912291   6.270194   5.206492
    37  H    6.142203   4.479103   2.737633   6.372557   5.084058
    38  H    6.142266   4.479500   2.738217   6.372836   5.084524
    39  H    6.442038   5.509493   4.003108   7.197162   6.278377
    40  C    9.291607  10.058554   9.136021  11.088880  11.037907
    41  H    9.966467  10.710055   9.746485  11.756567  11.678390
    42  H    9.966873  10.710497   9.746936  11.756990  11.678832
    43  H    8.804994   9.257617   8.197327  10.434647  10.201070
    44  Co   5.669480   6.513328   5.967814   7.416863   7.542682
                   21         22         23         24         25
    21  C    0.000000
    22  C    2.300177   0.000000
    23  C    1.409087   2.277625   0.000000
    24  C    1.389818   3.671911   2.430150   0.000000
    25  C    2.445593   3.637390   1.388625   2.848245   0.000000
    26  C    2.383881   4.615978   2.752912   1.396847   2.430227
    27  H    2.166660   4.238383   3.423365   1.082922   3.931045
    28  C    2.773370   4.606687   2.377855   2.437915   1.395787
    29  H    3.433584   4.170063   2.162747   3.933872   1.085628
    30  H    3.368513   5.646637   3.838726   2.144194   3.406681
    31  H    3.859059   5.632370   3.366382   3.413335   2.147748
    32  N    1.383356   1.397648   2.224329   2.551670   3.553988
    33  N    2.243711   1.370302   1.382908   3.562469   2.523626
    34  N    5.939976   4.382037   6.551724   6.911637   7.940312
    35  N    7.070411   5.011569   7.285374   8.263012   8.619327
    36  C    7.721433   5.492637   7.683663   9.011081   8.931910
    37  H    8.402629   6.183844   8.344371   9.688563   9.572304
    38  H    8.402296   6.183492   8.344017   9.688240   9.571944
    39  H    7.075163   4.788987   6.881529   8.414594   8.070151
    40  C    3.631367   2.483421   2.488619   4.877180   3.102095
    41  H    4.051815   3.198273   2.821306   5.183609   3.124176
    42  H    4.051741   3.198502   2.821070   5.183461   3.123703
    43  H    4.286119   2.560325   3.360484   5.623704   4.153520
    44  Co   4.052835   1.910321   4.185084   5.336800   5.529173
                   26         27         28         29         30
    26  C    0.000000
    27  H    2.158472   0.000000
    28  C    1.395605   3.416624   0.000000
    29  H    3.419019   5.016670   2.168345   0.000000
    30  H    1.085892   2.471586   2.148728   4.307815   0.000000
    31  H    2.150239   4.301326   1.085844   2.492177   2.465721
    32  N    3.737948   2.921928   4.123550   4.384330   4.665591
    33  N    4.111918   4.409858   3.720561   2.866680   5.196161
    34  N    8.230832   6.817537   8.677072   8.550483   9.048839
    35  N    9.452729   8.400128   9.610910   8.989870  10.391675
    36  C   10.089542   9.291610  10.058555   9.136023  11.088882
    37  H   10.758042   9.966824  10.710453   9.746896  11.756945
    38  H   10.757706   9.966520  10.710100   9.746527  11.756614
    39  H    9.403129   8.804997   9.257617   8.197328  10.434648
    40  C    5.193469   5.791295   4.479640   2.912292   6.270193
    41  H    5.330717   6.142276   4.479519   2.738241   6.372851
    42  H    5.330417   6.142195   4.479085   2.737612   6.372541
    43  H    6.111943   6.442038   5.509492   4.003108   7.197161
    44  Co   6.430377   5.669480   6.513325   5.967812   7.416861
                   31         32         33         34         35
    31  H    0.000000
    32  N    5.207341   0.000000
    33  N    4.645135   2.184334   0.000000
    34  N    9.756676   4.561341   5.727256   0.000000
    35  N   10.643849   5.727258   6.145159   2.184332   0.000000
    36  C   11.037909   6.463731   6.408371   3.581701   1.436451
    37  H   11.678791   7.156245   7.064042   4.174478   2.093728
    38  H   11.678434   7.155923   7.063683   4.174350   2.093751
    39  H   10.201072   5.906275   5.555993   3.889381   2.062088
    40  C    5.206492   3.581701   1.436449   6.463727   6.408370
    41  H    5.084546   4.174354   2.093751   7.155863   7.063632
    42  H    5.084039   4.174477   2.093727   7.156299   7.064091
    43  H    6.278377   3.889382   2.062087   5.906272   5.555992
    44  Co   7.542681   2.794474   3.101275   2.794474   3.101277
                   36         37         38         39         40
    36  C    0.000000
    37  H    1.096065   0.000000
    38  H    1.096067   1.784418   0.000000
    39  H    1.091513   1.778924   1.778933   0.000000
    40  C    6.347082   6.943632   6.943241   5.355637   0.000000
    41  H    6.943195   7.618428   7.406067   5.936546   1.096068
    42  H    6.943678   7.407024   7.618509   5.936944   1.096065
    43  H    5.355637   5.936892   5.936598   4.331352   1.091512
    44  Co   3.675322   4.402553   4.402199   3.139440   3.675318
                   41         42         43         44
    41  H    0.000000
    42  H    1.784418   0.000000
    43  H    1.778934   1.778922   0.000000
    44  Co   4.402155   4.402591   3.139437   0.000000
 Symmetry turned off by external request.
 Stoichiometry    C22H17CoN4
 Framework group  C1[X(C22H17CoN4)]
 Deg. of freedom   126
 Full point group                 C1      NOp   1
 Rotational constants (GHZ):           0.4705351           0.1017588           0.0837542
 General basis read from cards:  (5D, 7F)
 ======================================================================================================
                                       Pseudopotential Parameters
 ======================================================================================================
  Center     Atomic      Valence      Angular      Power
  Number     Number     Electrons     Momentum     of R      Exponent        Coefficient   SO-Coeffient
 ======================================================================================================
    1          6
                                   No pseudopotential on this center.
    2          6
                                   No pseudopotential on this center.
    3          6
                                   No pseudopotential on this center.
    4          6
                                   No pseudopotential on this center.
    5          6
                                   No pseudopotential on this center.
    6          6
                                   No pseudopotential on this center.
    7          1
                                   No pseudopotential on this center.
    8          1
                                   No pseudopotential on this center.
    9          1
                                   No pseudopotential on this center.
   10          6
                                   No pseudopotential on this center.
   11          6
                                   No pseudopotential on this center.
   12          6
                                   No pseudopotential on this center.
   13          6
                                   No pseudopotential on this center.
   14          6
                                   No pseudopotential on this center.
   15          6
                                   No pseudopotential on this center.
   16          1
                                   No pseudopotential on this center.
   17          6
                                   No pseudopotential on this center.
   18          1
                                   No pseudopotential on this center.
   19          1
                                   No pseudopotential on this center.
   20          1
                                   No pseudopotential on this center.
   21          6
                                   No pseudopotential on this center.
   22          6
                                   No pseudopotential on this center.
   23          6
                                   No pseudopotential on this center.
   24          6
                                   No pseudopotential on this center.
   25          6
                                   No pseudopotential on this center.
   26          6
                                   No pseudopotential on this center.
   27          1
                                   No pseudopotential on this center.
   28          6
                                   No pseudopotential on this center.
   29          1
                                   No pseudopotential on this center.
   30          1
                                   No pseudopotential on this center.
   31          1
                                   No pseudopotential on this center.
   32          7
                                   No pseudopotential on this center.
   33          7
                                   No pseudopotential on this center.
   34          7
                                   No pseudopotential on this center.
   35          7
                                   No pseudopotential on this center.
   36          6
                                   No pseudopotential on this center.
   37          1
                                   No pseudopotential on this center.
   38          1
                                   No pseudopotential on this center.
   39          1
                                   No pseudopotential on this center.
   40          6
                                   No pseudopotential on this center.
   41          1
                                   No pseudopotential on this center.
   42          1
                                   No pseudopotential on this center.
   43          1
                                   No pseudopotential on this center.
   44         27           17
                                      F and up 
                                                     2        1.0000000        0.00000000    0.00000000
                                      S - F
                                                     2       23.6600000      283.96056600    0.00000000
                                                     2       10.6100000       47.15684600    0.00000000
                                      P - F
                                                     2       25.0400000      182.21223600    0.00000000
                                                     2       10.4400000       35.23335200    0.00000000
                                      D - F
                                                     2       29.5400000      -26.47533300    0.00000000
                                                     2       10.1800000       -1.82578700    0.00000000
 ======================================================================================================
   441 basis functions,   871 primitive gaussians,   473 cartesian basis functions
    97 alpha electrons       97 beta electrons
       nuclear repulsion energy      2501.4411759940 Hartrees.
 NAtoms=   44 NActive=   44 NUniq=   44 SFac= 1.00D+00 NAtFMM=   60 NAOKFM=F Big=F
 Integral buffers will be    131072 words long.
 Raffenetti 2 integral format.
 Two-electron integral symmetry is turned off.
 Nuclear repulsion after empirical dispersion term =     2501.3819461728 Hartrees.
 One-electron integrals computed using PRISM.
   1 Symmetry operations used in ECPInt.
 ECPInt:  NShTT=   11781 NPrTT=   71406 LenC2=    9560 LenP2D=   32154.
 LDataN:  DoStor=T MaxTD1= 6 Len=  172
 NBasis=   441 RedAO= T EigKep=  3.48D-04  NBF=   441
 NBsUse=   441 1.00D-06 EigRej= -1.00D+00 NBFU=   441
 ExpMin= 1.00D-02 ExpMax= 4.17D+03 ExpMxC= 6.27D+02 IAcc=3 IRadAn=         5 AccDes= 0.00D+00
 Harris functional with IExCor= 1009 and IRadAn=      -1 diagonalized for initial guess.
 HarFok:  IExCor= 1009 AccDes= 0.00D+00 IRadAn=        -1 IDoV= 1 UseB2=F ITyADJ=14
 ICtDFT=  3500011 ScaDFX=  1.000000  1.000000  1.000000  1.000000
 Spurious integrated density or basis function:
 NE=  194 NElCor=    0 El error=4.92D-03 rel=2.41D-05 Tolerance=1.00D-03
 Shell   149     absolute error=1.23D-02              Tolerance=1.20D-02
 Shell   144       signed error=9.36D-03              Tolerance=1.00D-01
 Inaccurate quadrature in CalDSu.
 Error termination via Lnk1e in /data/app/gaussian/C01-avx2//g16/l401.exe at Wed Jul 17 20:34:23 2024.
 Job cpu time:       0 days  0 hours  0 minutes 46.9 seconds.
 Elapsed time:       0 days  0 hours  0 minutes  1.0 seconds.
 File lengths (MBytes):  RWF=     16 Int=      0 D2E=      0 Chk=    162 Scr=      1
